<?xml version='1.0' encoding='UTF-8'?>
<VTKFile xmlns='VTK' byte_order='LittleEndian' version='0.1' type='UnstructuredGrid'>
<UnstructuredGrid>
<Piece NumberOfCells='2100' NumberOfPoints='2100'>
<Points>
<DataArray NumberOfComponents='3' type='Float32' Name='Position' format='ascii'>
0 0 0
0 0 0.025
0 0 0.05
0 0 0.075
0 0 0.1
0 0 0.125
0 0 0.15
0 0 0.175
0 0 0.2
0 0 0.225
0 0 0.25
0 0 0.275
0 0 0.3
0 0 0.325
0 0 0.35
0 0 0.375
0 0 0.4
0 0 0.425
0 0 0.45
0 0 0.475
0 0 0.5
0 0 0.525
0 0 0.55
0 0 0.575
0 0 0.6
0 0 0.625
0 0 0.65
0 0 0.675
0 0 0.7
0 0 0.725
0.025 0 0
0.025 0 0.025
0.025 0 0.05
0.025 0 0.075
0.025 0 0.1
0.025 0 0.125
0.025 0 0.15
0.025 0 0.175
0.025 0 0.2
0.025 0 0.225
0.025 0 0.25
0.025 0 0.275
0.025 0 0.3
0.025 0 0.325
0.025 0 0.35
0.025 0 0.375
0.025 0 0.4
0.025 0 0.425
0.025 0 0.45
0.025 0 0.475
0.025 0 0.5
0.025 0 0.525
0.025 0 0.55
0.025 0 0.575
0.025 0 0.6
0.025 0 0.625
0.025 0 0.65
0.025 0 0.675
0.025 0 0.7
0.025 0 0.725
0.05 0 0
0.05 0 0.025
0.05 0 0.05
0.05 0 0.075
0.05 0 0.1
0.05 0 0.125
0.05 0 0.15
0.05 0 0.175
0.05 0 0.2
0.05 0 0.225
0.05 0 0.25
0.05 0 0.275
0.05 0 0.3
0.05 0 0.325
0.05 0 0.35
0.05 0 0.375
0.05 0 0.4
0.05 0 0.425
0.05 0 0.45
0.05 0 0.475
0.05 0 0.5
0.05 0 0.525
0.05 0 0.55
0.05 0 0.575
0.05 0 0.6
0.05 0 0.625
0.05 0 0.65
0.05 0 0.675
0.05 0 0.7
0.05 0 0.725
0.075 0 0
0.075 0 0.025
0.075 0 0.05
0.075 0 0.075
0.075 0 0.1
0.075 0 0.125
0.075 0 0.15
0.075 0 0.175
0.075 0 0.2
0.075 0 0.225
0.075 0 0.25
0.075 0 0.275
0.075 0 0.3
0.075 0 0.325
0.075 0 0.35
0.075 0 0.375
0.075 0 0.4
0.075 0 0.425
0.075 0 0.45
0.075 0 0.475
0.075 0 0.5
0.075 0 0.525
0.075 0 0.55
0.075 0 0.575
0.075 0 0.6
0.075 0 0.625
0.075 0 0.65
0.075 0 0.675
0.075 0 0.7
0.075 0 0.725
0.1 0 0
0.1 0 0.025
0.1 0 0.05
0.1 0 0.075
-8465.4 0 -6485.19
15.0109 0 -269.929
-79.0751 0 -76.9487
242.681 0 0.207342
6.87948 0 -14.4375
15.7827 0 -4.16071
-25.4061 0 -12.4415
-63.8753 0 305.938
-619.817 0 -516.348
-402.321 0 -269.986
170.838 0 39.5917
-5.44724 0 -3.9527
-798.034 0 938.392
-5.336 0 3.98574
-17.0296 0 -7.04774
-14.9815 0 -9.87802
-163.718 0 -1.79336
-116.929 0 -6.48147
307.716 0 90.266
-3.45068 0 3.57246
9.56257 0 -45.2999
26.8204 0 -16.4786
14.4863 0 -15.9995
14.2709 0 -14.9258
-16.4839 0 5.7666
-20.5709 0 -12.8405
0.125 0 0
0.125 0 0.025
0.125 0 0.05
0.125 0 0.075
115.864 0 188.473
61.8395 0 -57.5663
-113.064 0 -148.023
-9.78346 0 191.734
6.21828 0 -13.7279
14.3767 0 -2.7456
33.6083 0 19.137
4.28294 0 107.385
58.7169 0 -99.7147
192.642 0 -114.091
6.07402 0 18.9465
-70.4081 0 101.676
193.65 0 45.26
14.6943 0 -19.8066
-5.19867 0 -18.3938
-45.5456 0 -20.7949
1.44663 0 -62.952
-2219.23 0 5402.06
118.69 0 -0.602335
2.81689 0 -6.03951
141.687 0 -36.8204
-42.3691 0 -62.3637
-10.6972 0 -14.2607
-9.42056 0 -13.531
-6.96317 0 296.905
1367.56 0 949.34
0.15 0 0
0.15 0 0.025
0.15 0 0.05
0.15 0 0.075
-30.7644 0 46.2521
32.6232 0 219.924
-4.69862 0 33.3047
-15.4818 0 711.486
-51.9167 0 43.302
8.97677 0 -8.67337
-73.5094 0 110.378
18.9784 0 -15.5317
80.4303 0 -52.5357
117.801 0 -100.844
582.573 0 60.9268
-1321.15 0 -626.876
-5.14834 0 -5.92358
-49.002 0 -174.051
-23.2876 0 -14.2072
-748.268 0 -6617.83
31.5783 0 -25.0801
365.066 0 88.2064
-9.87619 0 4.44253
-6.94935 0 -5.26183
-7.29381 0 -15.152
-2.64724 0 1.83382
-18.2653 0 3.42849
-9.71823 0 -14.5002
-18.6713 0 4.88574
678.414 0 227.483
0.175 0 0
0.175 0 0.025
0.175 0 0.05
0.175 0 0.075
-17.7503 0 75.2809
-7758.7 0 -170.099
-7.54645 0 -70.9854
54.7397 0 -30.8438
476.752 0 31.4346
-45.3727 0 64.1038
-348.435 0 4.13286
2041.93 0 1449.97
-178.576 0 -2.49453
1740.56 0 -16272.4
-55.6861 0 -453.992
-1762.25 0 5355.36
-5.57833 0 1.8919
3984 0 -21841.1
8.0825 0 -110.255
-10052.8 0 8605.31
-31.3338 0 101.213
-51.7844 0 -39.2562
8.13173 0 -32.7228
-1.13025 0 -18.3502
-218.333 0 1.47894
6.55169 0 -6.56786
-1.94575 0 -3.27203
-12.3303 0 -19.1719
-62.8984 0 -162.768
-19.762 0 -19.4182
0.2 0 0
0.2 0 0.025
0.2 0 0.05
0.2 0 0.075
253.673 0 -2.14764
-59.3162 0 46.4887
-361.66 0 165.483
20.9963 0 -37.0282
55.3412 0 -33.1241
-2.62355 0 331.368
1048.21 0 -29.1783
16098.8 0 -643.731
-20.9743 0 -15.5165
-222.929 0 -278.459
481.757 0 -1116.97
-85.215 0 -818.263
-13.5726 0 -61.9679
-1.15849 0 -18.8489
-4.94251 0 -51.9723
-14.8672 0 6.63134
76.3721 0 0.98412
4.21385 0 -23.6655
-751.886 0 269.636
-2.61202 0 -18.8756
-6.40679 0 -19.2063
-22.6692 0 -21.3609
-8.79973 0 -6.77694
-216.699 0 2.52383
-2.92484 0 -9.85455
256.604 0 263.608
0.225 0 0
0.225 0 0.025
0.225 0 0.05
0.225 0 0.075
74.1676 0 48.198
-4723.96 0 246.466
50764 0 -8531.34
63.0982 0 -32.2356
21.2955 0 -24.3211
-24.6028 0 -35.9149
276.232 0 -608.622
113.491 0 -137.448
14.0517 0 -4.7509
199458 0 46078.8
-154.263 0 102.89
260.086 0 493.742
223.815 0 199.289
206.658 0 55.1603
169558 0 90508.3
-14.1127 0 -8.57307
6.75772 0 -2.54266
89.2346 0 -101.151
-7.74443 0 -7.06587
8.42555 0 -5.06813
24.2476 0 -12.9889
-9.68896 0 -7.71042
-8.61004 0 -17.4614
-0.379621 0 -6.78435
2.0197 0 85.0792
-10.192 0 -17.1524
0.25 0 0
0.25 0 0.025
0.25 0 0.05
0.25 0 0.075
3369.66 0 3084.01
106.551 0 -86.7338
-25.2119 0 -9.04336
5.72479 0 -6.51298
11.0157 0 -8.28671
86.5285 0 -8.02048
24.4135 0 -22.7619
-79.4498 0 -92.2879
-47.9031 0 -77.3031
-504.749 0 -197.724
149.972 0 -132.001
-683.283 0 1101.03
3981.9 0 -21931.1
96.3561 0 -173.928
169553 0 90506
-14.4635 0 7.38336
-355.939 0 343.205
26.1833 0 -35.5081
23.5115 0 242.111
10.7384 0 870.154
28.4869 0 -27.9767
-25.9957 0 -22.4295
-5.09673 0 -15.0143
3.47448 0 -20.7869
3.68202 0 -25.652
39.7276 0 -14.8317
0.275 0 0
0.275 0 0.025
0.275 0 0.05
0.275 0 0.075
111.185 0 115.467
-93.9332 0 181.714
166.44 0 33.0514
-18.3335 0 -14.7967
502.06 0 -644.841
-331.395 0 566.603
53.3076 0 -53.241
8.42735 0 -29.444
9.8867 0 -76.6802
-23.7776 0 26.2331
29.6125 0 -66.4259
76.7242 0 -51.9169
-30.4239 0 37.2651
87.0305 0 -873.479
-15.1944 0 -18.585
21.1132 0 6.52591
-18.6285 0 -9.51921
75.9237 0 -41.0379
619.447 0 -9.9581
141.735 0 -59.5155
16.1879 0 635.192
-44.5652 0 -3.98443
-9.97393 0 -19.9435
-4.34287 0 -6.58386
-5.49021 0 -8.00012
58.102 0 -77.0708
0.3 0 0
0.3 0 0.025
0.3 0 0.05
0.3 0 0.075
701.643 0 -847.823
102.173 0 4.00583
-42.1236 0 158.587
-93.8311 0 14.4116
26699.7 0 -3920.68
-599.206 0 -3293.13
-74.8746 0 167.542
-387.902 0 211.269
16.5702 0 -13.7289
-5054.65 0 18307.2
-48.2597 0 19.2091
-3.06541 0 -65.4675
-0.0692428 0 -4.66573
-82.0049 0 21708.8
114.68 0 -37.3612
40.9062 0 45.9258
-523.102 0 -91.6756
-286.987 0 -177.909
-349.677 0 338.774
-514.581 0 -227.157
-39.7436 0 -4.23929
-9.06848 0 -13.2416
9.39578 0 629.09
-36.3046 0 4.43611
-24902.1 0 -29924.9
-41.2838 0 -71.4117
0.325 0 0
0.325 0 0.025
0.325 0 0.05
0.325 0 0.075
169.518 0 -4.23865
74.4754 0 172.614
6.5138 0 35.1712
-197.537 0 -2282.55
206.799 0 -4589.03
161.965 0 -127.023
423.146 0 -442.812
46.1191 0 -79.5582
6.0107 0 -24.2429
52.293 0 -70.4397
50771.6 0 -8529.31
361.762 0 294.707
146.147 0 87.6499
-85.5075 0 27.7329
-122.259 0 6.40275
-6.10208 0 -16.8521
-11.422 0 -55.3812
161.254 0 -43.2107
-186.216 0 -5396.9
19.2315 0 -32.93
10.7531 0 -8.11979
542.913 0 1883.78
13.5006 0 446.447
35.5712 0 15.6206
817.242 0 1649.71
-25.824 0 19.872
0.35 0 0
0.35 0 0.025
0.35 0 0.05
0.35 0 0.075
0.35 0 0.1
0.35 0 0.125
0.35 0 0.15
0.35 0 0.175
0.35 0 0.2
0.35 0 0.225
0.35 0 0.25
0.35 0 0.275
0.35 0 0.3
0.35 0 0.325
0.35 0 0.35
0.35 0 0.375
0.35 0 0.4
0.35 0 0.425
0.35 0 0.45
0.35 0 0.475
0.35 0 0.5
0.35 0 0.525
0.35 0 0.55
0.35 0 0.575
0.35 0 0.6
0.35 0 0.625
0.35 0 0.65
0.35 0 0.675
0.35 0 0.7
0.35 0 0.725
0.375 0 0
0.375 0 0.025
0.375 0 0.05
0.375 0 0.075
0.375 0 0.1
0.375 0 0.125
0.375 0 0.15
0.375 0 0.175
0.375 0 0.2
0.375 0 0.225
0.375 0 0.25
0.375 0 0.275
0.375 0 0.3
0.375 0 0.325
0.375 0 0.35
0.375 0 0.375
0.375 0 0.4
0.375 0 0.425
0.375 0 0.45
0.375 0 0.475
0.375 0 0.5
0.375 0 0.525
0.375 0 0.55
0.375 0 0.575
0.375 0 0.6
0.375 0 0.625
0.375 0 0.65
0.375 0 0.675
0.375 0 0.7
0.375 0 0.725
0.4 0 0
0.4 0 0.025
0.4 0 0.05
0.4 0 0.075
0.4 0 0.1
0.4 0 0.125
0.4 0 0.15
0.4 0 0.175
0.4 0 0.2
0.4 0 0.225
0.4 0 0.25
0.4 0 0.275
0.4 0 0.3
0.4 0 0.325
0.4 0 0.35
0.4 0 0.375
0.4 0 0.4
0.4 0 0.425
0.4 0 0.45
0.4 0 0.475
0.4 0 0.5
0.4 0 0.525
0.4 0 0.55
0.4 0 0.575
0.4 0 0.6
0.4 0 0.625
0.4 0 0.65
0.4 0 0.675
0.4 0 0.7
0.4 0 0.725
0.425 0 0
0.425 0 0.025
0.425 0 0.05
0.425 0 0.075
0.425 0 0.1
0.425 0 0.125
0.425 0 0.15
0.425 0 0.175
0.425 0 0.2
0.425 0 0.225
0.425 0 0.25
0.425 0 0.275
0.425 0 0.3
0.425 0 0.325
0.425 0 0.35
0.425 0 0.375
0.425 0 0.4
0.425 0 0.425
0.425 0 0.45
0.425 0 0.475
0.425 0 0.5
0.425 0 0.525
0.425 0 0.55
0.425 0 0.575
0.425 0 0.6
0.425 0 0.625
0.425 0 0.65
0.425 0 0.675
0.425 0 0.7
0.425 0 0.725
0.45 0 0
0.45 0 0.025
0.45 0 0.05
0.45 0 0.075
0.45 0 0.1
0.45 0 0.125
0.45 0 0.15
0.45 0 0.175
0.45 0 0.2
0.45 0 0.225
0.45 0 0.25
0.45 0 0.275
0.45 0 0.3
0.45 0 0.325
0.45 0 0.35
0.45 0 0.375
0.45 0 0.4
0.45 0 0.425
0.45 0 0.45
0.45 0 0.475
0.45 0 0.5
0.45 0 0.525
0.45 0 0.55
0.45 0 0.575
0.45 0 0.6
0.45 0 0.625
0.45 0 0.65
0.45 0 0.675
0.45 0 0.7
0.45 0 0.725
0.475 0 0
0.475 0 0.025
0.475 0 0.05
0.475 0 0.075
0.475 0 0.1
0.475 0 0.125
0.475 0 0.15
0.475 0 0.175
0.475 0 0.2
0.475 0 0.225
0.475 0 0.25
0.475 0 0.275
0.475 0 0.3
0.475 0 0.325
0.475 0 0.35
0.475 0 0.375
0.475 0 0.4
0.475 0 0.425
0.475 0 0.45
0.475 0 0.475
0.475 0 0.5
0.475 0 0.525
0.475 0 0.55
0.475 0 0.575
0.475 0 0.6
0.475 0 0.625
0.475 0 0.65
0.475 0 0.675
0.475 0 0.7
0.475 0 0.725
0.5 0 0
0.5 0 0.025
0.5 0 0.05
0.5 0 0.075
0.5 0 0.1
0.5 0 0.125
0.5 0 0.15
0.5 0 0.175
0.5 0 0.2
0.5 0 0.225
0.5 0 0.25
0.5 0 0.275
0.5 0 0.3
0.5 0 0.325
0.5 0 0.35
0.5 0 0.375
0.5 0 0.4
0.5 0 0.425
0.5 0 0.45
0.5 0 0.475
0.5 0 0.5
0.5 0 0.525
0.5 0 0.55
0.5 0 0.575
0.5 0 0.6
0.5 0 0.625
0.5 0 0.65
0.5 0 0.675
0.5 0 0.7
0.5 0 0.725
0.525 0 0
0.525 0 0.025
0.525 0 0.05
0.525 0 0.075
0.525 0 0.1
0.525 0 0.125
0.525 0 0.15
0.525 0 0.175
0.525 0 0.2
0.525 0 0.225
0.525 0 0.25
0.525 0 0.275
0.525 0 0.3
0.525 0 0.325
0.525 0 0.35
0.525 0 0.375
0.525 0 0.4
0.525 0 0.425
0.525 0 0.45
0.525 0 0.475
0.525 0 0.5
0.525 0 0.525
[...]
<PointData>
<DataArray NumberOfComponents='1' type='Int32' Name='ParticleType' format='ascii'>
2
2
2
2
2
2
2
2
2
2
2
2
2
2
2
2
2
2
2
2
2
2
2
2
2
2
2
2
2
2
2
2
2
2
2
2
2
2
2
2
2
2
2
2
2
2
2
2
2
2
2
2
2
2
2
2
2
2
2
2
2
2
1
1
1
1
1
1
1
1
1
1
1
1
1
1
1
1
1
1
1
1
1
1
1
1
1
1
1
1
2
2
1
1
1
1
1
1
1
1
1
1
1
1
1
1
1
1
1
1
1
1
1
1
1
1
1
1
1
1
2
2
1
1
0
0
0
0
0
0
0
0
0
0
0
0
0
0
0
0
0
0
0
0
0
0
0
0
0
0
2
2
1
1
0
0
0
0
0
0
0
0
0
0
0
0
0
0
0
0
0
0
0
0
0
0
0
0
0
0
2
2
1
1
0
0
0
0
0
0
0
0
0
0
0
0
0
0
0
0
0
0
0
0
0
0
0
0
0
0
2
2
1
1
0
0
0
0
0
0
0
0
0
0
0
0
0
0
0
0
0
0
0
0
0
0
0
0
0
0
2
2
1
1
0
0
0
0
0
0
0
0
0
0
0
0
0
0
0
0
0
0
0
0
0
0
0
0
0
0
2
2
1
1
0
0
0
0
0
0
0
0
0
0
0
0
0
0
0
0
0
0
0
0
0
0
0
0
0
0
2
2
1
1
0
0
0
0
0
0
0
0
0
0
0
0
0
0
0
0
0
0
0
0
0
0
0
0
0
0
2
2
1
1
0
0
0
0
0
0
0
0
0
0
0
0
0
0
0
0
0
0
0
0
0
0
0
0
0
0
2
2
1
1
0
0
0
0
0
0
0
0
0
0
0
0
0
0
0
0
0
0
0
0
0
0
0
0
0
0
2
2
1
1
0
0
0
0
0
0
0
0
0
0
0
0
0
0
0
0
0
0
0
0
0
0
0
0
0
0
2
2
1
1
-1
-1
-1
-1
-1
-1
-1
-1
-1
-1
-1
-1
-1
-1
-1
-1
-1
-1
-1
-1
-1
-1
-1
-1
-1
-1
2
2
1
1
-1
-1
-1
-1
-1
-1
-1
-1
-1
-1
-1
-1
-1
-1
-1
-1
-1
-1
-1
-1
-1
-1
-1
-1
-1
-1
2
2
1
1
-1
-1
-1
-1
-1
-1
-1
-1
-1
-1
-1
-1
-1
-1
-1
-1
-1
-1
-1
-1
-1
-1
-1
-1
-1
-1
2
2
1
1
-1
-1
-1
-1
-1
-1
-1
-1
-1
-1
-1
-1
-1
-1
-1
-1
-1
-1
-1
-1
-1
-1
-1
-1
-1
-1
2
2
1
1
-1
-1
-1
-1
-1
-1
-1
-1
-1
-1
-1
-1
-1
-1
-1
-1
-1
-1
-1
-1
-1
-1
-1
-1
-1
-1
2
2
1
1
-1
-1
-1
-1
-1
-1
-1
-1
-1
-1
-1
-1
-1
-1
-1
-1
-1
-1
-1
-1
-1
-1
-1
-1
-1
-1
2
2
1
1
-1
-1
-1
-1
-1
-1
-1
-1
-1
-1
-1
-1
-1
-1
-1
-1
-1
-1
-1
-1
-1
-1
-1
-1
-1
-1
2
2
1
1
-1
-1
-1
-1
-1
-1
-1
-1
-1
-1
-1
-1
-1
-1
-1
-1
-1
-1
-1
-1
-1
-1
-1
-1
-1
-1
2
2
1
1
-1
-1
-1
-1
-1
-1
-1
-1
-1
-1
-1
-1
-1
-1
-1
-1
-1
-1
-1
-1
-1
-1
-1
-1
-1
-1
2
2
1
1
-1
-1
-1
-1
-1
-1
-1
-1
-1
-1
-1
-1
-1
-1
-1
-1
-1
-1
-1
-1
-1
-1
-1
-1
-1
-1
2
2
1
1
-1
-1
-1
-1
-1
-1
-1
-1
-1
-1
-1
-1
-1
-1
-1
-1
-1
-1
-1
-1
-1
-1
-1
-1
-1
-1
2
2
1
1
-1
-1
-1
-1
-1
-1
-1
-1
-1
-1
-1
-1
-1
-1
-1
-1
-1
-1
-1
-1
-1
-1
-1
-1
-1
-1
2
2
1
1
-1
-1
-1
-1
-1
-1
-1
-1
-1
-1
-1
-1
-1
-1
-1
-1
-1
-1
-1
-1
-1
-1
-1
-1
-1
-1
2
2
1
1
-1
-1
-1
-1
-1
-1
-1
-1
-1
-1
-1
-1
-1
-1
-1
-1
-1
-1
-1
-1
-1
-1
-1
-1
-1
-1
2
2
1
1
-1
-1
-1
-1
-1
-1
-1
-1
-1
-1
-1
-1
-1
-1
-1
-1
-1
-1
-1
-1
-1
-1
-1
-1
-1
-1
2
2
1
1
-1
-1
-1
-1
-1
-1
-1
-1
-1
-1
-1
-1
-1
-1
-1
-1
-1
-1
-1
-1
-1
-1
-1
-1
-1
-1
2
2
1
1
-1
-1
-1
-1
-1
-1
-1
-1
-1
-1
-1
-1
-1
-1
-1
-1
-1
-1
-1
-1
-1
-1
-1
-1
-1
-1
2
2
1
1
-1
-1
-1
-1
-1
-1
-1
-1
-1
-1
-1
-1
-1
-1
-1
-1
-1
-1
-1
-1
-1
-1
-1
-1
-1
-1
2
2
1
1
-1
-1
-1
-1
-1
-1
-1
-1
-1
-1
-1
-1
-1
-1
-1
-1
-1
-1
-1
-1
-1
-1
-1
-1
-1
-1
2
2
1
1
-1
-1
-1
-1
-1
-1
-1
-1
-1
-1
-1
-1
-1
-1
-1
-1
-1
-1
-1
-1
-1
-1
-1
-1
-1
-1
2
2
1
1
-1
-1
-1
-1
-1
-1
-1
-1
-1
-1
-1
-1
-1
-1
-1
-1
-1
-1
-1
-1
-1
-1
-1
-1
-1
-1
2
2
1
1
-1
-1
-1
-1
-1
-1
-1
-1
-1
-1
-1
-1
-1
-1
-1
-1
-1
-1
-1
-1
-1
-1
-1
-1
-1
-1
2
2
1
1
-1
-1
-1
-1
-1
-1
-1
-1
-1
-1
-1
-1
-1
-1
-1
-1
-1
-1
-1
-1
-1
-1
-1
-1
-1
-1
2
2
1
1
-1
-1
-1
-1
-1
-1
-1
-1
-1
-1
-1
-1
-1
-1
-1
-1
-1
-1
-1
-1
-1
-1
-1
-1
-1
-1
2
2
1
1
-1
-1
-1
-1
-1
-1
-1
-1
-1
-1
-1
-1
-1
-1
-1
-1
-1
-1
-1
-1
-1
-1
-1
-1
-1
-1
2
2
1
1
-1
-1
-1
-1
-1
-1
-1
-1
-1
-1
-1
-1
-1
-1
-1
-1
-1
-1
-1
-1
-1
-1
-1
-1
-1
-1
2
2
1
1
-1
-1
-1
-1
-1
-1
-1
-1
-1
-1
-1
-1
-1
-1
-1
-1
-1
-1
-1
-1
-1
-1
-1
-1
-1
-1
2
2
1
1
-1
-1
-1
-1
-1
-1
-1
-1
-1
-1
-1
-1
-1
-1
-1
-1
-1
-1
-1
-1
-1
-1
-1
-1
-1
-1
2
2
1
1
-1
-1
-1
-1
-1
-1
-1
-1
-1
-1
-1
-1
-1
-1
-1
-1
-1
-1
-1
-1
-1
-1
-1
-1
-1
-1
2
2
1
1
-1
-1
-1
-1
-1
-1
-1
-1
-1
-1
-1
-1
-1
-1
-1
-1
-1
-1
-1
-1
-1
-1
-1
-1
-1
-1
2
2
1
1
-1
-1
-1
-1
-1
-1
-1
-1
-1
-1
-1
-1
-1
-1
-1
-1
-1
-1
-1
-1
-1
-1
-1
-1
-1
-1
2
2
1
1
-1
-1
-1
-1
-1
-1
-1
-1
-1
-1
-1
-1
-1
-1
-1
-1
-1
-1
-1
-1
-1
-1
-1
-1
-1
-1
2
2
1
1
-1
-1
-1
-1
-1
-1
-1
-1
-1
-1
-1
-1
-1
-1
-1
-1
-1
-1
-1
-1
-1
-1
-1
-1
-1
-1
2
2
1
1
-1
-1
-1
-1
-1
-1
-1
-1
-1
-1
-1
-1
-1
-1
-1
-1
-1
-1
-1
-1
-1
-1
-1
-1
-1
-1
2
2
1
1
-1
-1
-1
-1
-1
-1
-1
-1
-1
-1
-1
-1
-1
-1
-1
-1
-1
-1
-1
-1
-1
-1
-1
-1
-1
-1
2
2
1
1
-1
-1
-1
-1
-1
-1
-1
-1
-1
-1
-1
-1
-1
-1
-1
-1
-1
-1
-1
-1
-1
-1
-1
-1
-1
-1
2
2
1
1
-1
-1
-1
-1
-1
-1
-1
-1
-1
-1
-1
-1
-1
-1
-1
-1
-1
-1
-1
-1
-1
-1
-1
-1
-1
-1
2
2
1
1
-1
-1
-1
-1
-1
-1
-1
-1
-1
-1
-1
-1
-1
-1
-1
-1
-1
-1
-1
-1
-1
-1
-1
-1
-1
-1
2
2
1
1
-1
-1
-1
-1
-1
-1
-1
-1
-1
-1
-1
-1
-1
-1
-1
-1
-1
-1
-1
-1
-1
-1
-1
-1
-1
-1
2
2
1
1
-1
-1
-1
-1
-1
-1
-1
-1
-1
-1
-1
-1
-1
-1
-1
-1
-1
-1
-1
-1
-1
-1
-1
-1
-1
-1
2
2
1
1
-1
-1
-1
-1
-1
-1
-1
-1
-1
-1
-1
-1
-1
-1
-1
-1
-1
-1
-1
-1
-1
-1
-1
-1
-1
-1
2
2
1
1
-1
-1
-1
-1
-1
-1
-1
-1
-1
-1
-1
-1
-1
-1
-1
-1
-1
-1
-1
-1
-1
-1
-1
-1
-1
-1
2
2
1
1
-1
-1
-1
-1
-1
-1
-1
-1
-1
-1
-1
-1
-1
-1
-1
-1
-1
-1
-1
-1
-1
-1
-1
-1
-1
-1
2
2
1
1
-1
-1
-1
-1
-1
-1
-1
-1
-1
-1
-1
-1
-1
-1
-1
-1
-1
-1
-1
-1
-1
-1
-1
-1
-1
-1
2
2
1
1
-1
-1
-1
-1
-1
-1
-1
-1
-1
-1
-1
-1
-1
-1
-1
-1
-1
-1
-1
-1
-1
-1
-1
-1
-1
-1
2
2
1
1
-1
-1
-1
-1
-1
-1
-1
-1
-1
-1
-1
-1
-1
-1
-1
-1
-1
-1
-1
-1
-1
-1
-1
-1
-1
-1
2
2
1
1
-1
-1
-1
-1
-1
-1
-1
-1
-1
-1
-1
-1
-1
-1
-1
-1
-1
-1
-1
-1
-1
-1
-1
-1
-1
-1
2
2
1
1
-1
-1
-1
-1
-1
-1
-1
-1
-1
-1
-1
-1
-1
-1
-1
-1
-1
-1
-1
-1
-1
-1
-1
-1
-1
-1
2
2
1
1
-1
-1
-1
-1
-1
-1
-1
-1
-1
-1
-1
-1
-1
-1
-1
-1
-1
-1
-1
-1
-1
-1
-1
-1
-1
-1
2
2
1
1
-1
-1
-1
-1
-1
-1
-1
-1
-1
-1
-1
-1
-1
-1
-1
-1
-1
-1
-1
-1
-1
-1
-1
-1
-1
-1
2
2
1
1
-1
-1
-1
-1
-1
-1
-1
-1
-1
-1
-1
-1
-1
-1
-1
-1
-1
-1
-1
-1
-1
-1
-1
-1
-1
-1
2
2
1
1
-1
-1
-1
-1
-1
-1
-1
-1
-1
-1
-1
-1
-1
-1
-1
-1
-1
-1
-1
-1
-1
-1
-1
-1
-1
-1
2
2
1
1
1
1
1
1
1
1
1
1
1
1
1
1
1
1
1
1
1
1
1
1
1
1
1
1
1
1
2
2
1
1
1
1
1
1
1
1
1
1
1
1
1
1
1
1
1
1
1
1
1
1
1
1
1
1
1
1
2
2
2
2
2
2
2
2
2
2
2
2
2
2
2
2
2
2
2
2
2
2
2
2
2
2
2
2
2
2
2
2
2
2
2
2
2
2
2
2
2
2
2
2
2
2
2
2
2
2
2
2
2
2
2
2
2
2
2
2
</DataArray>
<DataArray NumberOfComponents='1' type='Float32' Name='Velocity' format='ascii'>
0
0
0
0
0
0
0
0
0
0
0
0
0
0
0
0
0
0
0
0
0
0
0
0
0
0
0
0
0
0
0
0
0
0
0
0
0
0
0
0
0
0
0
0
0
0
0
0
0
0
0
0
0
0
0
0
0
0
0
0
0
0
0
0
0
0
0
0
0
0
0
0
0
0
0
0
0
0
0
0
0
0
0
0
0
0
0
0
0
0
0
0
0
0
0
0
0
0
0
0
0
0
0
0
0
0
0
0
0
0
0
0
0
0
0
0
0
0
0
0
0
0
0
0
8278.11
199.607
92.4409
182.092
18.1359
16.0863
25.6196
229.105
617.689
372.153
133.228
10.1657
962.68
5.52247
18.5218
18.9039
132.012
94.8327
275.862
3.85853
51.6431
32.4281
23.4613
22.5541
16.5729
23.1063
0
0
0
0
150.109
65.0506
140.138
168.535
17.3299
14.3391
27.3164
78.9593
93.5608
174.335
9.11059
94.1912
154.295
25.3279
21.2606
43.2312
57.094
4715.2
105.799
10.4698
158.242
93.6332
22.3169
20.8923
410.764
1387.69
0
0
0
0
33.8191
155.417
17.3928
580.776
49.0853
14.9296
93.1616
23.2615
76.6915
122.144
494.143
1195.78
11.5896
148.649
25.411
5451.66
36.4611
305.978
8.48403
11.7444
21.2961
3.45676
18.2569
21.8969
18.6877
583.682
0
0
0
0
47.7476
5989.03
59.0696
51.1075
396.528
58.3779
263.127
1997.9
135.167
13769.9
361.672
4551.5
5.66799
18677.8
93.3895
10573.8
79.4354
56.2738
33.9427
21.4692
236.235
12.2354
8.03845
26.7698
154.803
26.4228
0
0
0
0
183.503
49.1747
330.001
39.6826
55.7659
240.181
864.42
13217.2
24.6911
309.942
1001.67
645.518
57.2003
21.8699
47.3723
12.9019
70.1379
27.2227
665.498
22.0445
22.9196
32.803
13.2114
234.467
14.4983
302.063
0
0
0
0
59.6207
3443.46
41579.3
60.7482
30.5215
38.0066
532.905
146.139
15.0323
156865
146.681
443.663
251.051
182.197
178294
17.5378
9.92284
114.891
12.7858
12.1042
26.0189
14.4575
22.8084
11.07
94.4068
23.8839
0
0
0
0
3458.41
104.996
23.049
11.9178
14.9562
68.5361
30.5503
97.6992
74.8032
417.949
171.684
1063.33
18752
163.137
178288
12.6085
396.365
41.3749
261.307
969.049
41.2668
35.7689
19.4321
24.2294
29.0761
39.683
0
0
0
0
112.448
146.196
137.914
22.3113
647.249
497.158
61.8856
29.4927
65.164
22.7274
61.7823
76.7723
32.8454
724.608
25.3761
16.6358
21.0403
73.6126
523.404
166.584
498.124
40.2571
26.4324
11.6726
13.5616
78.5474
0
0
0
0
839.421
77.1146
112.086
72.3783
21781.2
2742.85
138.42
360.21
21.0678
15994.9
37.8037
59.1765
8.84115
17020.4
101.143
43.1182
405.101
280.656
390.242
464.655
36.1777
19.3015
714.781
29.3875
28526.8
68.4806
0
0
0
0
132.931
126.119
20.7524
1674.19
3350.03
166.226
485.85
78.0639
25.9498
74.2968
41585.1
376.398
135.561
71.0648
113.625
20.0346
51.6935
128.684
4103.68
35.3414
15.7604
1463.02
374.387
28.4283
1295.27
17.6231
0
0
0
0
0
0
0
0
0
0
0
0
0
0
0
0
0
0
0
0
0
0
0
0
0
0
0
0
0
0
0
0
0
0
0
0
0
0
0
0
0
0
0
0
0
0
0
0
0
0
0
0
0
0
0
0
0
0
0
0
0
0
0
0
0
0
0
0
0
0
0
0
0
0
0
0
0
0
0
0
0
0
0
0
0
0
0
0
0
0
0
0
0
0
0
0
0
0
0
0
0
0
0
0
0
0
0
0
0
0
0
0
0
0
0
0
0
0
0
0
0
0
0
0
0
0
0
0
0
0
0
0
0
0
0
0
0
0
0
0
0
0
0
0
0
0
0
0
0
0
0
0
0
0
0
0
0
0
0
0
0
0
0
0
0
0
0
0
0
0
0
0
0
0
0
0
0
0
0
0
0
0
0
0
0
0
0
0
0
0
0
0
0
0
0
0
0
0
0
0
0
0
0
0
0
0
0
0
0
0
0
0
0
0
0
0
0
0
0
0
0
0
0
0
0
0
0
0
0
0
0
0
0
0
0
0
0
0
0
0
0
0
0
0
0
0
0
0
0
0
0
0
0
0
0
0
0
0
0
0
0
0
0
0
0
0
0
0
0
0
0
0
0
0
0
0
0
0
0
0
0
0
0
0
0
0
0
0
0
0
0
0
0
0
0
0
0
0
0
0
0
0
0
0
0
0
0
0
0
0
0
0
0
0
0
0
0
0
0
0
0
0
0
0
0
0
0
0
0
0
0
0
0
0
0
0
0
0
0
0
0
0
0
0
0
0
0
0
0
0
0
0
0
0
0
0
0
0
0
0
0
0
0
0
0
0
0
0
0
0
0
0
0
0
0
0
0
0
0
0
0
0
0
0
0
0
0
0
0
0
0
0
0
0
0
0
0
0
0
0
0
0
0
0
0
0
0
0
0
0
0
0
0
0
0
0
0
0
0
0
0
0
0
0
0
0
0
0
0
0
0
0
0
0
0
0
0
0
0
0
0
0
0
0
0
0
0
0
0
0
0
0
0
0
0
0
0
0
0
0
0
0
0
0
0
0
0
0
0
0
0
0
0
0
0
0
0
0
0
0
0
0
0
0
0
0
0
0
0
0
0
0
0
0
0
0
0
0
0
0
0
0
0
0
0
0
0
0
0
0
0
0
0
0
0
0
0
0
0
0
0
0
0
0
0
0
0
0
0
0
0
0
0
0
0
0
0
0
0
0
0
0
0
0
0
0
0
0
0
0
0
0
0
0
0
0
0
0
0
0
0
0
0
0
0
0
0
0
0
0
0
0
0
0
0
0
0
0
0
0
0
0
0
0
0
0
0
0
0
0
0
0
0
0
0
0
0
0
0
0
0
0
0
0
0
0
0
0
0
0
0
0
0
0
0
0
0
0
0
0
0
0
0
0
0
0
0
0
0
0
0
0
0
0
0
0
0
0
0
0
0
0
0
0
0
0
0
0
0
0
0
0
0
0
0
0
0
0
0
0
0
0
0
0
0
0
0
0
0
0
0
0
0
0
0
0
0
0
0
0
0
0
0
0
0
0
0
0
0
0
0
0
0
0
0
0
0
0
0
0
0
0
0
0
0
0
0
0
0
0
0
0
0
0
0
0
0
0
0
0
0
0
0
0
0
0
0
0
0
0
0
0
0
0
0
0
0
0
0
0
0
0
0
0
0
0
0
0
0
0
0
0
0
0
0
0
0
0
0
0
0
0
0
0
0
0
0
0
0
0
0
0
0
0
0
0
0
0
0
0
0
0
0
0
0
0
0
0
0
0
0
0
0
0
0
0
0
0
0
0
0
0
0
0
0
0
0
0
0
0
0
0
0
0
0
0
0
0
0
0
0
0
0
0
0
0
0
0
0
0
0
0
0
0
0
0
0
0
0
0
0
0
0
0
0
0
0
0
0
0
0
0
0
0
0
0
0
0
0
0
0
0
0
0
0
0
0
0
0
0
0
0
0
0
0
0
0
0
0
0
0
0
0
0
0
0
0
0
0
0
0
0
0
0
0
0
0
0
0
0
0
0
0
0
0
0
0
0
0
0
0
0
0
0
0
0
0
0
0
0
0
0
0
0
0
0
0
0
0
0
0
0
0
0
0
0
0
0
0
0
0
0
0
0
0
0
0
0
0
0
0
0
0
0
0
0
0
0
0
0
0
0
0
0
0
0
0
0
0
0
0
0
0
0
0
0
0
0
0
0
0
0
0
0
0
0
0
0
0
0
0
0
0
0
0
0
0
0
0
0
0
0
0
0
0
0
0
0
0
0
0
0
0
0
0
0
0
0
0
0
0
0
0
0
0
0
0
0
0
0
0
0
0
0
0
0
0
0
0
0
0
0
0
0
0
0
0
0
0
0
0
0
0
0
0
0
0
0
0
0
0
0
0
0
0
0
0
0
0
0
0
0
0
0
0
0
0
0
0
0
0
0
0
0
0
0
0
0
0
0
0
0
0
0
0
0
0
0
0
0
0
0
0
0
0
0
0
0
0
0
0
0
0
0
0
0
0
0
0
0
0
0
0
0
0
0
0
0
0
0
0
0
0
0
0
0
0
0
0
0
0
0
0
0
0
0
0
0
0
0
0
0
0
0
0
0
0
0
0
0
0
0
0
0
0
0
0
0
0
0
0
0
0
0
0
0
0
0
0
0
0
0
0
0
0
0
0
0
0
0
0
0
0
0
0
0
0
0
0
0
0
0
0
0
0
0
0
0
0
0
0
0
0
0
0
0
0
0
0
0
0
0
0
0
0
0
0
0
0
0
0
0
0
0
0
0
0
0
0
0
0
0
0
0
0
0
0
0
0
0
0
0
0
0
0
0
0
0
0
0
0
0
0
0
0
0
0
0
0
0
0
0
0
0
0
0
0
0
0
0
0
0
0
0
0
0
0
0
0
0
0
0
0
0
0
0
0
0
0
0
0
0
0
0
0
0
0
0
0
0
0
0
0
0
0
0
0
0
0
0
0
0
0
0
0
0
0
0
0
0
0
0
0
0
0
0
0
0
0
0
0
0
0
0
0
0
0
0
0
0
0
0
0
0
0
0
0
0
0
0
0
0
0
0
0
0
0
0
0
0
0
0
0
0
0
0
0
0
0
0
0
0
0
0
0
0
0
0
0
0
0
0
0
0
0
0
0
0
0
0
0
0
0
0
0
0
0
0
0
0
0
0
0
0
0
0
0
0
0
0
0
0
0
0
0
0
0
0
0
0
0
0
0
0
0
0
0
0
0
0
0
0
0
0
0
0
0
0
0
0
0
0
0
0
0
0
0
0
0
0
0
0
0
0
0
0
0
0
0
0
0
0
0
0
0
0
0
0
0
0
0
0
0
0
0
0
0
0
0
0
0
0
0
0
0
0
0
0
0
0
0
0
0
0
0
0
0
0
0
0
0
0
0
0
0
0
0
0
0
0
0
0
0
0
0
0
0
0
0
0
0
0
0
0
0
0
0
0
0
0
0
0
0
0
0
0
0
0
0
0
0
0
0
0
0
0
0
0
0
0
0
0
0
0
0
0
0
0
0
0
0
0
0
0
0
0
0
0
0
0
0
0
0
0
0
0
0
0
0
0
0
0
0
0
0
0
0
0
0
0
0
0
0
0
0
0
0
0
0
0
0
0
0
0
0
0
0
0
0
0
0
0
0
0
0
0
0
0
0
0
0
0
0
0
0
0
0
0
0
0
0
0
0
0
0
0
0
0
0
0
0
0
0
0
0
0
0
0
0
0
0
0
0
0
0
0
0
0
0
0
0
0
0
0
0
0
0
0
0
0
</DataArray>
<DataArray NumberOfComponents='1' type='Float32' Name='pressure' format='ascii'>
0
0
0
0
0
0
0
0
0
0
0
0
0
0
0
0
0
0
0
0
0
0
0
0
0
0
0
0
0
0
0
0
0
0
0
0
0
0
0
0
0
0
0
0
0
0
0
0
0
0
0
0
0
0
0
0
0
0
0
0
0
0
0
0
0
0
0
0
0
0
0
0
0
0
0
0
0
0
0
0
0
0
0
0
0
0
0
0
0
0
0
0
0
0
0
0
0
0
0
0
0
0
0
0
0
0
0
0
0
0
0
0
0
0
0
0
0
0
0
26932.3
0
0
0
0
0
0
0
0
0
0
0
0
0
0
0
0
0
0
0
0
0
0
0
0
0
0
0
0
0
0
0
0
0
0
0
0
0
0
0
0
0
0
0
0
0
0
0
0
0
0
0
0
0
0
0
0
0
0
0
0
0
0
0
0
0
0
0
0
0
0
0
0
0
0
0
0
0
0
0
0
0
0
0
0
0
0
0
0
0
0
0
0
0
0
0
0
0
0
0
0
0
0
0
0
0
0
0
0
0
0
0
0
0
0
0
0
0
0
0
0
0
0
0
0
0
0
0
0
0
0
0
0
0
0
0
0
0
0
0
0
0
0
0
0
0
0
0
0
0
0
0
0
0
0
0
0
0
0
0
0
0
0
0
0
0
0
0
0
0
0
0
0
0
0
0
0
0
0
0
0
0
0
0
0
0
0
0
0
0
0
0
0
0
0
0
0
0
0
0
0
0
0
0
0
0
0
0
0
0
0
0
0
0
0
0
0
0
0
0
0
0
0
0
0
0
0
0
0
0
0
0
0
0
0
0
0
0
0
0
0
0
0
0
0
0
0
0
0
0
0
0
0
0
0
0
0
0
0
0
0
0
0
0
0
0
0
0
0
0
0
0
0
0
0
0
0
0
0
0
0
0
0
0
0
0
0
0
0
0
0
0
0
0
0
0
0
0
0
0
0
0
0
0
0
0
0
0
0
0
0
0
0
0
0
0
0
0
0
0
0
0
0
0
0
0
0
0
0
0
0
0
0
0
0
0
0
0
0
0
0
0
0
0
0
0
0
0
0
0
0
0
0
0
0
0
0
0
0
0
0
0
0
0
0
0
0
0
0
0
0
0
0
0
0
0
0
0
0
0
0
0
0
0
0
0
0
0
0
0
0
0
0
0
0
0
0
0
0
0
0
0
0
0
0
0
0
0
0
0
0
0
0
0
0
0
0
0
0
0
0
0
0
0
0
0
0
0
0
0
0
0
0
0
0
0
0
0
0
0
0
0
0
0
0
0
0
0
0
0
0
0
0
0
0
0
0
0
0
0
0
0
0
0
0
0
0
0
0
0
0
0
0
0
0
0
0
0
0
0
0
0
0
0
0
0
0
0
0
0
0
0
0
0
0
0
0
0
0
0
0
0
0
0
0
0
0
0
0
0
0
0
0
0
0
0
0
0
0
0
0
0
0
0
0
0
0
0
0
0
0
0
0
0
0
0
0
0
0
0
0
0
0
0
0
0
0
0
0
0
0
0
0
0
0
0
0
0
0
0
0
0
0
0
0
0
0
0
0
0
0
0
0
0
0
0
0
0
0
0
0
0
0
0
0
0
0
0
0
0
0
0
0
0
0
0
0
0
0
0
0
0
0
0
0
0
0
0
0
0
0
0
0
0
0
0
0
0
0
0
0
0
0
0
0
0
0
0
0
0
0
0
0
0
0
0
0
0
0
0
0
0
0
0
0
0
0
0
0
0
0
0
0
0
0
0
0
0
0
0
0
0
0
0
0
0
0
0
0
0
0
0
0
0
0
0
0
0
0
0
0
0
0
0
0
0
0
0
0
0
0
0
0
0
0
0
0
0
0
0
0
0
0
0
0
0
0
0
0
0
0
0
0
0
0
0
0
0
0
0
0
0
0
0
0
0
0
0
0
0
0
0
0
0
0
0
0
0
0
0
0
0
0
0
0
0
0
0
0
0
0
0
0
0
0
0
0
0
0
0
0
0
0
0
0
0
0
0
0
0
0
0
0
0
0
0
0
0
0
0
0
0
0
0
0
0
0
0
0
0
0
0
0
0
0
0
0
0
0
0
0
0
0
0
0
0
0
0
0
0
0
0
0
0
0
0
0
0
0
0
0
0
0
0
0
0
0
0
0
0
0
0
0
0
0
0
0
0
0
0
0
0
0
0
0
0
0
0
0
0
0
0
0
0
0
0
0
0
0
0
0
0
0
0
0
0
0
0
0
0
0
0
0
0
0
0
0
0
0
0
0
0
0
0
0
0
0
0
0
0
0
0
0
0
0
0
0
0
0
0
0
0
0
0
0
0
0
0
0
0
0
0
0
0
0
0
0
0
0
0
0
0
0
0
0
0
0
0
0
0
0
0
0
0
0
0
0
0
0
0
0
0
0
0
0
0
0
0
0
0
0
0
0
0
0
0
0
0
0
0
0
0
0
0
0
0
0
0
0
0
0
0
0
0
0
0
0
0
0
0
0
0
0
0
0
0
0
0
0
0
0
0
0
0
0
0
0
0
0
0
0
0
0
0
0
0
0
0
0
0
0
0
0
0
0
0
0
0
0
0
0
0
0
0
0
0
0
0
0
0
0
0
0
0
0
0
0
0
0
0
0
0
0
0
0
0
0
0
0
0
0
0
0
0
0
0
0
0
0
0
0
0
0
0
0
0
0
0
0
0
0
0
0
0
0
0
0
0
0
0
0
0
0
0
0
0
0
0
0
0
0
0
0
0
0
0
0
0
0
0
0
0
0
0
0
0
0
0
0
0
0
0
0
0
0
0
0
0
0
0
0
0
0
0
0
0
0
0
0
0
0
0
0
0
0
0
0
0
0
0
0
0
0
0
0
0
0
0
0
0
0
0
0
0
0
0
0
0
0
0
0
0
0
0
0
0
0
0
0
0
0
0
0
0
0
0
0
0
0
0
0
0
0
0
0
0
0
0
0
0
0
0
0
0
0
0
0
0
0
0
0
0
0
0
0
0
0
0
0
0
0
0
0
0
0
0
0
0
0
0
0
0
0
0
0
0
0
0
0
0
0
0
0
0
0
0
0
0
0
0
0
0
0
0
0
0
0
0
0
0
0
0
0
0
0
0
0
0
0
0
0
0
0
0
0
0
0
0
0
0
0
0
0
0
0
0
0
0
0
0
0
0
0
0
0
0
0
0
0
0
0
0
0
0
0
0
0
0
0
0
0
0
0
0
0
0
0
0
0
0
0
0
0
0
0
0
0
0
0
0
0
0
0
0
0
0
0
0
0
0
0
0
0
0
0
0
0
0
0
0
0
0
0
0
0
0
0
0
0
0
0
0
0
0
0
0
0
0
0
0
0
0
0
0
0
0
0
0
0
0
0
0
0
0
0
0
0
0
0
0
0
0
0
0
0
0
0
0
0
0
0
0
0
0
0
0
0
0
0
0
0
0
0
0
0
0
0
0
0
0
0
0
0
0
0
0
0
0
0
0
0
0
0
0
0
0
0
0
0
0
0
0
0
0
0
0
0
0
0
0
0
0
0
0
0
0
0
0
0
0
0
0
0
0
0
0
0
0
0
0
0
0
0
0
0
0
0
0
0
0
0
0
0
0
0
0
0
0
0
0
0
0
0
0
0
0
0
0
0
0
0
0
0
0
0
0
0
0
0
0
0
0
0
0
0
0
0
0
0
0
0
0
0
0
0
0
0
0
0
0
0
0
0
0
0
0
0
0
0
0
0
0
0
0
0
0
0
0
0
0
0
0
0
0
0
0
0
0
0
0
0
0
0
0
0
0
0
0
0
0
0
0
0
0
0
0
0
0
0
0
0
0
0
0
0
0
0
0
0
0
0
0
0
0
0
0
0
0
0
0
0
0
0
0
0
0
0
0
0
0
0
0
0
0
0
0
0
0
0
0
0
0
0
0
0
0
0
0
0
0
0
0
0
0
0
0
0
0
0
0
0
0
0
0
0
0
0
0
0
0
0
0
0
0
0
0
0
0
0
0
0
0
0
0
0
0
0
0
0
0
0
0
0
0
0
0
0
0
0
0
0
0
0
0
0
0
0
0
0
0
0
0
0
0
0
0
0
0
0
0
0
0
0
0
0
0
0
0
0
0
0
0
0
0
0
0
0
0
0
0
0
0
0
0
0
0
0
0
0
0
0
0
0
0
0
0
0
0
0
0
0
0
0
0
0
0
0
0
0
0
0
0
0
0
0
0
0
0
0
0
0
0
0
0
0
0
0
0
0
0
0
0
0
0
0
0
0
0
0
0
0
0
0
0
0
0
0
0
0
0
0
0
0
0
0
0
0
0
0
0
0
0
0
0
0
0
0
0
0
0
0
0
0
0
0
0
0
0
0
0
0
0
0
0
0
0
0
0
0
0
0
0
0
0
0
0
0
0
0
0
0
0
0
0
0
0
0
0
0
0
0
0
0
0
0
0
0
0
0
0
0
0
0
0
0
0
0
0
0
0
0
0
0
0
0
0
0
0
0
0
0
0
0
0
0
0
0
0
0
0
0
0
0
0
0
0
0
0
0
0
26932.3
0
0
0
0
0
0
0
0
0
0
0
0
0
0
0
0
0
0
0
0
0
0
0
0
0
0
0
0
0
0
0
0
0
0
0
0
0
0
0
0
0
0
0
0
0
0
0
0
0
0
0
0
0
0
0
0
0
0
0
0
0
0
0
0
0
0
0
0
0
0
0
0
0
0
0
0
0
0
0
0
0
0
0
0
0
0
0
0
0
0
</DataArray>
</PointData>
<Cells>
<DataArray type='Int32' Name='connectivity' format='ascii'>
0
1
2
3
4
5
6
7
8
9
10
11
12
13
14
15
16
17
18
19
20
21
22
23
24
25
26
27
28
29
30
31
32
33
34
35
36
37
38
39
40
41
42
43
44
45
46
47
48
49
50
51
52
53
54
55
56
57
58
59
60
61
62
63
64
65
66
67
68
69
70
71
72
73
74
75
76
77
78
79
80
81
82
83
84
85
86
87
88
89
90
91
92
93
94
95
96
97
98
99
100
101
102
103
104
105
106
107
108
109
110
111
112
113
114
115
116
117
118
119
120
121
122
123
124
125
126
127
128
129
130
131
132
133
134
135
136
137
138
139
140
141
142
143
144
145
146
147
148
149
150
151
152
153
154
155
156
157
158
159
160
161
162
163
164
165
166
167
168
169
170
171
172
173
174
175
176
177
178
179
180
181
182
183
184
185
186
187
188
189
190
191
192
193
194
195
196
197
198
199
200
201
202
203
204
205
206
207
208
209
210
211
212
213
214
215
216
217
218
219
220
221
222
223
224
225
226
227
228
229
230
231
232
233
234
235
236
237
238
239
240
241
242
243
244
245
246
247
248
249
250
251
252
253
254
255
256
257
258
259
260
261
262
263
264
265
266
267
268
269
270
271
272
273
274
275
276
277
278
279
280
281
282
283
284
285
286
287
288
289
290
291
292
293
294
295
296
297
298
299
300
301
302
303
304
305
306
307
308
309
310
311
312
313
314
315
316
317
318
319
320
321
322
323
324
325
326
327
328
329
330
331
332
333
334
335
336
337
338
339
340
341
342
343
344
345
346
347
348
349
350
351
352
353
354
355
356
357
358
359
360
361
362
363
364
365
366
367
368
369
370
371
372
373
374
375
376
377
378
379
380
381
382
383
384
385
386
387
388
389
390
391
392
393
394
395
396
397
398
399
400
401
402
403
404
405
406
407
408
409
410
411
412
413
414
415
416
417
418
419
420
421
422
423
424
425
426
427
428
429
430
431
432
433
434
435
436
437
438
439
440
441
442
443
444
445
446
447
448
449
450
451
452
453
454
455
456
457
458
459
460
461
462
463
464
465
466
467
468
469
470
471
472
473
474
475
476
477
478
479
480
481
482
483
484
485
486
487
488
489
490
491
492
493
494
495
496
497
498
499
500
501
502
503
504
505
506
507
508
509
510
511
512
513
514
515
516
517
518
519
520
521
522
523
524
525
526
527
528
529
530
531
532
533
534
535
536
537
538
539
540
541
542
543
544
545
546
547
548
549
550
551
552
553
554
555
556
557
558
559
560
561
562
563
564
565
566
567
568
569
570
571
572
573
574
575
576
577
578
579
580
581
582
583
584
585
586
587
588
589
590
591
592
593
594
595
596
597
598
599
600
601
602
603
604
605
606
607
608
609
610
611
612
613
614
615
616
617
618
619
620
621
622
623
624
625
626
627
628
629
630
631
632
633
634
635
636
637
638
639
640
641
642
643
644
645
646
647
648
649
650
651
652
653
654
655
656
657
658
659
660
661
662
663
664
665
666
667
668
669
670
671
672
673
674
675
676
677
678
679
680
681
682
683
684
685
686
687
688
689
690
691
692
693
694
695
696
697
698
699
700
701
702
703
704
705
706
707
708
709
710
711
712
713
714
715
716
717
718
719
720
721
722
723
724
725
726
727
728
729
730
731
732
733
734
735
736
737
738
739
740
741
742
743
744
745
746
747
748
749
750
751
752
753
754
755
756
757
758
759
760
761
762
763
764
765
766
767
768
769
770
771
772
773
774
775
776
777
778
779
780
781
782
783
784
785
786
787
788
789
790
791
792
793
794
795
796
797
798
799
800
801
802
803
804
805
806
807
808
809
810
811
812
813
814
815
816
817
818
819
820
821
822
823
824
825
826
827
828
829
830
831
832
833
834
835
836
837
838
839
840
841
842
843
844
845
846
847
848
849
850
851
852
853
854
855
856
857
858
859
860
861
862
863
864
865
866
867
868
869
870
871
872
873
874
875
876
877
878
879
880
881
882
883
884
885
886
887
888
889
890
891
892
893
894
895
896
897
898
899
900
901
902
903
904
905
906
907
908
909
910
911
912
913
914
915
916
917
918
919
920
921
922
923
924
925
926
927
928
929
930
931
932
933
934
935
936
937
938
939
940
941
942
943
944
945
946
947
948
949
950
951
952
953
954
955
956
957
958
959
960
961
962
963
964
965
966
967
968
969
970
971
972
973
974
975
976
977
978
979
980
981
982
983
984
985
986
987
988
989
990
991
992
993
994
995
996
997
998
999
1000
1001
1002
1003
1004
1005
1006
1007
1008
1009
1010
1011
1012
1013
1014
1015
1016
1017
1018
1019
1020
1021
1022
1023
1024
1025
1026
1027
1028
1029
1030
1031
1032
1033
1034
1035
1036
1037
1038
1039
1040
1041
1042
1043
1044
1045