<?xml version='1.0' encoding='UTF-8'?>
<VTKFile xmlns='VTK' byte_order='LittleEndian' version='0.1' type='UnstructuredGrid'>
<UnstructuredGrid>
<Piece NumberOfCells='2100' NumberOfPoints='2100'>
<Points>
<DataArray NumberOfComponents='3' type='Float32' Name='Position' format='ascii'>
0 0 0
0 0 0.025
0 0 0.05
0 0 0.075
0 0 0.1
0 0 0.125
0 0 0.15
0 0 0.175
0 0 0.2
0 0 0.225
0 0 0.25
0 0 0.275
0 0 0.3
0 0 0.325
0 0 0.35
0 0 0.375
0 0 0.4
0 0 0.425
0 0 0.45
0 0 0.475
0 0 0.5
0 0 0.525
0 0 0.55
0 0 0.575
0 0 0.6
0 0 0.625
0 0 0.65
0 0 0.675
0 0 0.7
0 0 0.725
0.025 0 0
0.025 0 0.025
0.025 0 0.05
0.025 0 0.075
0.025 0 0.1
0.025 0 0.125
0.025 0 0.15
0.025 0 0.175
0.025 0 0.2
0.025 0 0.225
0.025 0 0.25
0.025 0 0.275
0.025 0 0.3
0.025 0 0.325
0.025 0 0.35
0.025 0 0.375
0.025 0 0.4
0.025 0 0.425
0.025 0 0.45
0.025 0 0.475
0.025 0 0.5
0.025 0 0.525
0.025 0 0.55
0.025 0 0.575
0.025 0 0.6
0.025 0 0.625
0.025 0 0.65
0.025 0 0.675
0.025 0 0.7
0.025 0 0.725
0.05 0 0
0.05 0 0.025
0.05 0 0.05
0.05 0 0.075
0.05 0 0.1
0.05 0 0.125
0.05 0 0.15
0.05 0 0.175
0.05 0 0.2
0.05 0 0.225
0.05 0 0.25
0.05 0 0.275
0.05 0 0.3
0.05 0 0.325
0.05 0 0.35
0.05 0 0.375
0.05 0 0.4
0.05 0 0.425
0.05 0 0.45
0.05 0 0.475
0.05 0 0.5
0.05 0 0.525
0.05 0 0.55
0.05 0 0.575
0.05 0 0.6
0.05 0 0.625
0.05 0 0.65
0.05 0 0.675
0.05 0 0.7
0.05 0 0.725
0.075 0 0
0.075 0 0.025
0.075 0 0.05
0.075 0 0.075
0.075 0 0.1
0.075 0 0.125
0.075 0 0.15
0.075 0 0.175
0.075 0 0.2
0.075 0 0.225
0.075 0 0.25
0.075 0 0.275
0.075 0 0.3
0.075 0 0.325
0.075 0 0.35
0.075 0 0.375
0.075 0 0.4
0.075 0 0.425
0.075 0 0.45
0.075 0 0.475
0.075 0 0.5
0.075 0 0.525
0.075 0 0.55
0.075 0 0.575
0.075 0 0.6
0.075 0 0.625
0.075 0 0.65
0.075 0 0.675
0.075 0 0.7
0.075 0 0.725
0.1 0 0
0.1 0 0.025
0.1 0 0.05
0.1 0 0.075
-11355.6 0 -8702.83
19.6042 0 -358.587
-106.893 0 -107.574
322.751 0 -3.59346
9.47866 0 -22.9329
21.9594 0 -8.5678
-34.3189 0 -20.294
-85.1675 0 403.52
-827.244 0 -692.912
-536.971 0 -364.117
228.532 0 49.0201
-7.47554 0 -8.89009
-1074.04 0 1258.75
-7.3158 0 1.62613
-23.4703 0 -12.9919
-20.6184 0 -16.9452
-221.709 0 -6.05796
-158.357 0 -12.4143
424.859 0 121.101
-5.14752 0 2.67715
13.4305 0 -68.642
37.9808 0 -26.3194
20.3374 0 -25.4549
20.0462 0 -23.9468
-23.7363 0 5.57469
-27.6752 0 -21.0641
0.125 0 0
0.125 0 0.025
0.125 0 0.05
0.125 0 0.075
151.75 0 242.971
81.1957 0 -79.6021
-149.132 0 -198.985
-13.8292 0 264.828
8.56071 0 -21.9351
19.9851 0 -6.58624
45.0056 0 22.0023
5.48369 0 141.156
78.3205 0 -136.865
257.312 0 -156.295
8.03361 0 21.4928
-95.3096 0 133.854
260.311 0 57.1634
20.032 0 -30.5402
-7.07762 0 -28.5087
-61.7069 0 -31.7777
1.9708 0 -89.0187
-3008.6 0 7319.77
165.161 0 -4.29628
3.98284 0 -11.447
208.853 0 -56.1181
-65.1461 0 -97.6442
-16.2071 0 -23.3394
-14.3229 0 -22.258
-11.6994 0 476.628
1870.2 0 1295.03
0.15 0 0
0.15 0 0.025
0.15 0 0.05
0.15 0 0.075
-40.4709 0 56.58
42.9599 0 286.57
-6.22262 0 39.8535
-21.2452 0 966.012
-69.8249 0 54.4238
12.1736 0 -15.3629
-97.5882 0 142.6
25.3995 0 -24.4529
107.301 0 -73.8977
157.169 0 -138.38
799.059 0 80.1398
-1795.42 0 -855.626
-7.07185 0 -11.5971
-66.0665 0 -238.142
-31.4208 0 -22.8302
-1017.48 0 -9002.36
42.7049 0 -37.5883
496.511 0 116.366
-13.434 0 2.36165
-9.5418 0 -10.6828
-11.1536 0 -24.6412
-3.98284 0 0.15533
-26.2933 0 2.19621
-14.7432 0 -23.6715
-26.8865 0 4.28462
922.7 0 305.784
0.175 0 0
0.175 0 0.025
0.175 0 0.05
0.175 0 0.075
-23.3253 0 94.5858
-10393.2 0 -231.646
-10.2008 0 -97.7909
72.9442 0 -44.9958
650.999 0 39.3509
-61.4765 0 83.1643
-464.201 0 1.6919
2759.99 0 1956.15
-237.934 0 -7.13743
2384.12 0 -22297.8
-74.792 0 -612.928
-2389.08 0 7256.44
-7.72209 0 -0.333225
5458.07 0 -29927
10.8258 0 -152.206
-13588.7 0 11628.2
-42.4463 0 133.4
-70.1683 0 -56.7935
10.9894 0 -48.3325
-1.71682 0 -28.7292
-322.273 0 -0.392912
9.122 0 -12.249
-2.86514 0 -7.63816
-17.9889 0 -30.4531
-86.7958 0 -227.502
-26.6915 0 -29.7042
0.2 0 0
0.2 0 0.025
0.2 0 0.05
0.2 0 0.075
334.327 0 -6.86146
-77.7451 0 56.8749
-494.663 0 222.783
28.1816 0 -53.8924
75.1605 0 -48.5407
-3.49517 0 436.093
1428.33 0 -43.4199
21909.6 0 -879.738
-28.3441 0 -24.4495
-307.061 0 -386.74
655.385 0 -1523.01
-114.417 0 -1101.74
-18.5641 0 -87.5869
-1.61596 0 -29.4116
-6.7246 0 -73.6906
-20.5151 0 6.25237
107.153 0 -2.18768
5.83425 0 -36.4842
-1028.33 0 365.221
-3.78079 0 -29.4553
-8.9445 0 -29.9172
-32.2408 0 -33.1147
-12.4878 0 -12.221
-319.863 0 1.14932
-4.3538 0 -17.0225
350.526 0 356.694
0.225 0 0
0.225 0 0.025
0.225 0 0.05
0.225 0 0.075
97.4172 0 59.3976
-6237.18 0 321.443
68805.5 0 -11566.8
85.7806 0 -47.3271
28.6198 0 -36.5282
-32.705 0 -51.4948
371.92 0 -823.638
153.119 0 -189.038
19.5351 0 -9.40032
266708 0 61611.1
-209.18 0 135.844
352.038 0 664.99
307.501 0 270.441
284.7 0 72.5438
238766 0 127448
-19.4233 0 -15.1224
9.26543 0 -7.06749
121.325 0 -141.162
-10.9854 0 -12.615
11.8773 0 -10.0748
33.058 0 -21.25
-13.7611 0 -13.5483
-12.4569 0 -27.6813
-0.549909 0 -12.603
2.68059 0 125.662
-14.8696 0 -27.5136
0.25 0 0
0.25 0 0.025
0.25 0 0.05
0.25 0 0.075
4493.62 0 4108.87
140.818 0 -118.669
-33.5025 0 -15.8351
7.50842 0 -12.395
14.6138 0 -14.7475
116.17 0 -14.519
32.7197 0 -34.2814
-106.12 0 -126.953
-64.0156 0 -106.954
-675.023 0 -268.137
205.213 0 -184.477
-931.278 0 1496.81
5455.2 0 -30050.4
129.999 0 -238.286
238759 0 127444
-19.9443 0 7.29153
-482.803 0 461.924
35.6375 0 -52.0165
34.2516 0 355.632
15.3619 0 1295.56
40.3452 0 -42.6779
-36.9943 0 -34.6375
-7.44721 0 -24.1858
5.10481 0 -32.2733
5.07819 0 -39.3199
55.1432 0 -23.9818
0.275 0 0
0.275 0 0.025
0.275 0 0.05
0.275 0 0.075
146.901 0 148.756
-124.69 0 237.26
226.417 0 41.3285
-24.3813 0 -23.4803
675.604 0 -871.596
-443.176 0 753.685
71.0578 0 -74.8409
11.1837 0 -43.0755
13.1032 0 -106.122
-31.8257 0 31.2179
39.5171 0 -92.6923
103.36 0 -73.6423
-40.8928 0 46.2774
118.304 0 -1191.72
-21.0822 0 -29.0228
28.4137 0 5.04444
-25.7071 0 -16.4365
103.208 0 -59.4436
849.661 0 -17.1318
208.948 0 -89.7056
21.6931 0 853.346
-61.8582 0 -8.7705
-14.5603 0 -31.5821
-6.46306 0 -12.2125
-8.13243 0 -14.3011
77.4624 0 -106.651
0.3 0 0
0.3 0 0.025
0.3 0 0.05
0.3 0 0.075
935.701 0 -1134.49
136.058 0 1.29972
-55.6219 0 205.071
-125.614 0 15.4721
36181.4 0 -5316.69
-814.793 0 -4481.52
-100.866 0 221.672
-527.991 0 284.446
22.14 0 -22.0895
-6928.96 0 25089.8
-64.5019 0 21.8456
-4.16967 0 -92.4326
0.0646467 0 -9.50433
-110.308 0 29196.7
156.064 0 -54.68
54.9063 0 57.7786
-698.169 0 -126.136
-390.754 0 -245.805
-474.318 0 455.923
-700.636 0 -312.858
-55.1679 0 -9.12455
-13.115 0 -21.6591
13.701 0 942.613
-49.188 0 2.38294
-32929.7 0 -39575
-55.1925 0 -99.0918
0.325 0 0
0.325 0 0.025
0.325 0 0.05
0.325 0 0.075
227.843 0 -9.58258
97.5674 0 222.123
8.69602 0 43.0868
-260.898 0 -3017.41
272.918 0 -6062.51
218.026 0 -174.948
569.393 0 -599.684
62.0689 0 -110.929
7.97692 0 -36.4411
70.3893 0 -98.6155
68815.8 0 -11564
491.497 0 396.699
198.471 0 115.333
-115.948 0 33.9287
-172.254 0 5.69813
-8.30386 0 -26.3388
-15.5472 0 -78.7
215.169 0 -61.4553
-248.384 0 -7202.4
25.8257 0 -47.9636
15.2156 0 -14.3785
721.89 0 2501.18
18.4047 0 610.154
47.8196 0 17.2071
1071.36 0 2158.89
-33.2771 0 21.0608
0.35 0 0
0.35 0 0.025
0.35 0 0.05
0.35 0 0.075
0.35 0 0.1
0.35 0 0.125
0.35 0 0.15
0.35 0 0.175
0.35 0 0.2
0.35 0 0.225
0.35 0 0.25
0.35 0 0.275
0.35 0 0.3
0.35 0 0.325
0.35 0 0.35
0.35 0 0.375
0.35 0 0.4
0.35 0 0.425
0.35 0 0.45
0.35 0 0.475
0.35 0 0.5
0.35 0 0.525
0.35 0 0.55
0.35 0 0.575
0.35 0 0.6
0.35 0 0.625
0.35 0 0.65
0.35 0 0.675
0.35 0 0.7
0.35 0 0.725
0.375 0 0
0.375 0 0.025
0.375 0 0.05
0.375 0 0.075
0.375 0 0.1
0.375 0 0.125
0.375 0 0.15
0.375 0 0.175
0.375 0 0.2
0.375 0 0.225
0.375 0 0.25
0.375 0 0.275
0.375 0 0.3
0.375 0 0.325
0.375 0 0.35
0.375 0 0.375
0.375 0 0.4
0.375 0 0.425
0.375 0 0.45
0.375 0 0.475
0.375 0 0.5
0.375 0 0.525
0.375 0 0.55
0.375 0 0.575
0.375 0 0.6
0.375 0 0.625
0.375 0 0.65
0.375 0 0.675
0.375 0 0.7
0.375 0 0.725
0.4 0 0
0.4 0 0.025
0.4 0 0.05
0.4 0 0.075
0.4 0 0.1
0.4 0 0.125
0.4 0 0.15
0.4 0 0.175
0.4 0 0.2
0.4 0 0.225
0.4 0 0.25
0.4 0 0.275
0.4 0 0.3
0.4 0 0.325
0.4 0 0.35
0.4 0 0.375
0.4 0 0.4
0.4 0 0.425
0.4 0 0.45
0.4 0 0.475
0.4 0 0.5
0.4 0 0.525
0.4 0 0.55
0.4 0 0.575
0.4 0 0.6
0.4 0 0.625
0.4 0 0.65
0.4 0 0.675
0.4 0 0.7
0.4 0 0.725
0.425 0 0
0.425 0 0.025
0.425 0 0.05
0.425 0 0.075
0.425 0 0.1
0.425 0 0.125
0.425 0 0.15
0.425 0 0.175
0.425 0 0.2
0.425 0 0.225
0.425 0 0.25
0.425 0 0.275
0.425 0 0.3
0.425 0 0.325
0.425 0 0.35
0.425 0 0.375
0.425 0 0.4
0.425 0 0.425
0.425 0 0.45
0.425 0 0.475
0.425 0 0.5
0.425 0 0.525
0.425 0 0.55
0.425 0 0.575
0.425 0 0.6
0.425 0 0.625
0.425 0 0.65
0.425 0 0.675
0.425 0 0.7
0.425 0 0.725
0.45 0 0
0.45 0 0.025
0.45 0 0.05
0.45 0 0.075
0.45 0 0.1
0.45 0 0.125
0.45 0 0.15
0.45 0 0.175
0.45 0 0.2
0.45 0 0.225
0.45 0 0.25
0.45 0 0.275
0.45 0 0.3
0.45 0 0.325
0.45 0 0.35
0.45 0 0.375
0.45 0 0.4
0.45 0 0.425
0.45 0 0.45
0.45 0 0.475
0.45 0 0.5
0.45 0 0.525
0.45 0 0.55
0.45 0 0.575
0.45 0 0.6
0.45 0 0.625
0.45 0 0.65
0.45 0 0.675
0.45 0 0.7
0.45 0 0.725
0.475 0 0
0.475 0 0.025
0.475 0 0.05
0.475 0 0.075
0.475 0 0.1
0.475 0 0.125
0.475 0 0.15
0.475 0 0.175
0.475 0 0.2
0.475 0 0.225
0.475 0 0.25
0.475 0 0.275
0.475 0 0.3
0.475 0 0.325
0.475 0 0.35
0.475 0 0.375
0.475 0 0.4
0.475 0 0.425
0.475 0 0.45
0.475 0 0.475
0.475 0 0.5
0.475 0 0.525
0.475 0 0.55
0.475 0 0.575
0.475 0 0.6
0.475 0 0.625
0.475 0 0.65
0.475 0 0.675
0.475 0 0.7
0.475 0 0.725
0.5 0 0
0.5 0 0.025
0.5 0 0.05
0.5 0 0.075
0.5 0 0.1
0.5 0 0.125
0.5 0 0.15
0.5 0 0.175
0.5 0 0.2
0.5 0 0.225
0.5 0 0.25
0.5 0 0.275
0.5 0 0.3
0.5 0 0.325
0.5 0 0.35
0.5 0 0.375
0.5 0 0.4
0.5 0 0.425
0.5 0 0.45
0.5 0 0.475
0.5 0 0.5
0.5 0 0.525
0.5 0 0.55
0.5 0 0.575
0.5 0 0.6
0.5 0 0.625
0.5 0 0.65
0.5 0 0.675
0.5 0 0.7
0.5 0 0.725
0.525 0 0
0.525 0 0.025
0.525 0 0.05
0.525 0 0.075
0.525 0 0.1
0.525 0 0.125
0.525 0 0.15
0.525 0 0.175
0.525 0 0.2
0.525 0 0.225
0.525 0 0.25
0.525 0 0.275
0.525 0 0.3
0.525 0 0.325
0.525 0 0.35
0.525 0 0.375
0.525 0 0.4
0.525 0 0.425
0.525 0 0.45
0.525 0 0.475
0.525 0 0.5
0.525 0 0.525
0.525 0 0.55
[...]
<PointData>
<DataArray NumberOfComponents='1' type='Int32' Name='ParticleType' format='ascii'>
2
2
2
2
2
2
2
2
2
2
2
2
2
2
2
2
2
2
2
2
2
2
2
2
2
2
2
2
2
2
2
2
2
2
2
2
2
2
2
2
2
2
2
2
2
2
2
2
2
2
2
2
2
2
2
2
2
2
2
2
2
2
1
1
1
1
1
1
1
1
1
1
1
1
1
1
1
1
1
1
1
1
1
1
1
1
1
1
1
1
2
2
1
1
1
1
1
1
1
1
1
1
1
1
1
1
1
1
1
1
1
1
1
1
1
1
1
1
1
1
2
2
1
1
0
0
0
0
0
0
0
0
0
0
0
0
0
0
0
0
0
0
0
0
0
0
0
0
0
0
2
2
1
1
0
0
0
0
0
0
0
0
0
0
0
0
0
0
0
0
0
0
0
0
0
0
0
0
0
0
2
2
1
1
0
0
0
0
0
0
0
0
0
0
0
0
0
0
0
0
0
0
0
0
0
0
0
0
0
0
2
2
1
1
0
0
0
0
0
0
0
0
0
0
0
0
0
0
0
0
0
0
0
0
0
0
0
0
0
0
2
2
1
1
0
0
0
0
0
0
0
0
0
0
0
0
0
0
0
0
0
0
0
0
0
0
0
0
0
0
2
2
1
1
0
0
0
0
0
0
0
0
0
0
0
0
0
0
0
0
0
0
0
0
0
0
0
0
0
0
2
2
1
1
0
0
0
0
0
0
0
0
0
0
0
0
0
0
0
0
0
0
0
0
0
0
0
0
0
0
2
2
1
1
0
0
0
0
0
0
0
0
0
0
0
0
0
0
0
0
0
0
0
0
0
0
0
0
0
0
2
2
1
1
0
0
0
0
0
0
0
0
0
0
0
0
0
0
0
0
0
0
0
0
0
0
0
0
0
0
2
2
1
1
0
0
0
0
0
0
0
0
0
0
0
0
0
0
0
0
0
0
0
0
0
0
0
0
0
0
2
2
1
1
-1
-1
-1
-1
-1
-1
-1
-1
-1
-1
-1
-1
-1
-1
-1
-1
-1
-1
-1
-1
-1
-1
-1
-1
-1
-1
2
2
1
1
-1
-1
-1
-1
-1
-1
-1
-1
-1
-1
-1
-1
-1
-1
-1
-1
-1
-1
-1
-1
-1
-1
-1
-1
-1
-1
2
2
1
1
-1
-1
-1
-1
-1
-1
-1
-1
-1
-1
-1
-1
-1
-1
-1
-1
-1
-1
-1
-1
-1
-1
-1
-1
-1
-1
2
2
1
1
-1
-1
-1
-1
-1
-1
-1
-1
-1
-1
-1
-1
-1
-1
-1
-1
-1
-1
-1
-1
-1
-1
-1
-1
-1
-1
2
2
1
1
-1
-1
-1
-1
-1
-1
-1
-1
-1
-1
-1
-1
-1
-1
-1
-1
-1
-1
-1
-1
-1
-1
-1
-1
-1
-1
2
2
1
1
-1
-1
-1
-1
-1
-1
-1
-1
-1
-1
-1
-1
-1
-1
-1
-1
-1
-1
-1
-1
-1
-1
-1
-1
-1
-1
2
2
1
1
-1
-1
-1
-1
-1
-1
-1
-1
-1
-1
-1
-1
-1
-1
-1
-1
-1
-1
-1
-1
-1
-1
-1
-1
-1
-1
2
2
1
1
-1
-1
-1
-1
-1
-1
-1
-1
-1
-1
-1
-1
-1
-1
-1
-1
-1
-1
-1
-1
-1
-1
-1
-1
-1
-1
2
2
1
1
-1
-1
-1
-1
-1
-1
-1
-1
-1
-1
-1
-1
-1
-1
-1
-1
-1
-1
-1
-1
-1
-1
-1
-1
-1
-1
2
2
1
1
-1
-1
-1
-1
-1
-1
-1
-1
-1
-1
-1
-1
-1
-1
-1
-1
-1
-1
-1
-1
-1
-1
-1
-1
-1
-1
2
2
1
1
-1
-1
-1
-1
-1
-1
-1
-1
-1
-1
-1
-1
-1
-1
-1
-1
-1
-1
-1
-1
-1
-1
-1
-1
-1
-1
2
2
1
1
-1
-1
-1
-1
-1
-1
-1
-1
-1
-1
-1
-1
-1
-1
-1
-1
-1
-1
-1
-1
-1
-1
-1
-1
-1
-1
2
2
1
1
-1
-1
-1
-1
-1
-1
-1
-1
-1
-1
-1
-1
-1
-1
-1
-1
-1
-1
-1
-1
-1
-1
-1
-1
-1
-1
2
2
1
1
-1
-1
-1
-1
-1
-1
-1
-1
-1
-1
-1
-1
-1
-1
-1
-1
-1
-1
-1
-1
-1
-1
-1
-1
-1
-1
2
2
1
1
-1
-1
-1
-1
-1
-1
-1
-1
-1
-1
-1
-1
-1
-1
-1
-1
-1
-1
-1
-1
-1
-1
-1
-1
-1
-1
2
2
1
1
-1
-1
-1
-1
-1
-1
-1
-1
-1
-1
-1
-1
-1
-1
-1
-1
-1
-1
-1
-1
-1
-1
-1
-1
-1
-1
2
2
1
1
-1
-1
-1
-1
-1
-1
-1
-1
-1
-1
-1
-1
-1
-1
-1
-1
-1
-1
-1
-1
-1
-1
-1
-1
-1
-1
2
2
1
1
-1
-1
-1
-1
-1
-1
-1
-1
-1
-1
-1
-1
-1
-1
-1
-1
-1
-1
-1
-1
-1
-1
-1
-1
-1
-1
2
2
1
1
-1
-1
-1
-1
-1
-1
-1
-1
-1
-1
-1
-1
-1
-1
-1
-1
-1
-1
-1
-1
-1
-1
-1
-1
-1
-1
2
2
1
1
-1
-1
-1
-1
-1
-1
-1
-1
-1
-1
-1
-1
-1
-1
-1
-1
-1
-1
-1
-1
-1
-1
-1
-1
-1
-1
2
2
1
1
-1
-1
-1
-1
-1
-1
-1
-1
-1
-1
-1
-1
-1
-1
-1
-1
-1
-1
-1
-1
-1
-1
-1
-1
-1
-1
2
2
1
1
-1
-1
-1
-1
-1
-1
-1
-1
-1
-1
-1
-1
-1
-1
-1
-1
-1
-1
-1
-1
-1
-1
-1
-1
-1
-1
2
2
1
1
-1
-1
-1
-1
-1
-1
-1
-1
-1
-1
-1
-1
-1
-1
-1
-1
-1
-1
-1
-1
-1
-1
-1
-1
-1
-1
2
2
1
1
-1
-1
-1
-1
-1
-1
-1
-1
-1
-1
-1
-1
-1
-1
-1
-1
-1
-1
-1
-1
-1
-1
-1
-1
-1
-1
2
2
1
1
-1
-1
-1
-1
-1
-1
-1
-1
-1
-1
-1
-1
-1
-1
-1
-1
-1
-1
-1
-1
-1
-1
-1
-1
-1
-1
2
2
1
1
-1
-1
-1
-1
-1
-1
-1
-1
-1
-1
-1
-1
-1
-1
-1
-1
-1
-1
-1
-1
-1
-1
-1
-1
-1
-1
2
2
1
1
-1
-1
-1
-1
-1
-1
-1
-1
-1
-1
-1
-1
-1
-1
-1
-1
-1
-1
-1
-1
-1
-1
-1
-1
-1
-1
2
2
1
1
-1
-1
-1
-1
-1
-1
-1
-1
-1
-1
-1
-1
-1
-1
-1
-1
-1
-1
-1
-1
-1
-1
-1
-1
-1
-1
2
2
1
1
-1
-1
-1
-1
-1
-1
-1
-1
-1
-1
-1
-1
-1
-1
-1
-1
-1
-1
-1
-1
-1
-1
-1
-1
-1
-1
2
2
1
1
-1
-1
-1
-1
-1
-1
-1
-1
-1
-1
-1
-1
-1
-1
-1
-1
-1
-1
-1
-1
-1
-1
-1
-1
-1
-1
2
2
1
1
-1
-1
-1
-1
-1
-1
-1
-1
-1
-1
-1
-1
-1
-1
-1
-1
-1
-1
-1
-1
-1
-1
-1
-1
-1
-1
2
2
1
1
-1
-1
-1
-1
-1
-1
-1
-1
-1
-1
-1
-1
-1
-1
-1
-1
-1
-1
-1
-1
-1
-1
-1
-1
-1
-1
2
2
1
1
-1
-1
-1
-1
-1
-1
-1
-1
-1
-1
-1
-1
-1
-1
-1
-1
-1
-1
-1
-1
-1
-1
-1
-1
-1
-1
2
2
1
1
-1
-1
-1
-1
-1
-1
-1
-1
-1
-1
-1
-1
-1
-1
-1
-1
-1
-1
-1
-1
-1
-1
-1
-1
-1
-1
2
2
1
1
-1
-1
-1
-1
-1
-1
-1
-1
-1
-1
-1
-1
-1
-1
-1
-1
-1
-1
-1
-1
-1
-1
-1
-1
-1
-1
2
2
1
1
-1
-1
-1
-1
-1
-1
-1
-1
-1
-1
-1
-1
-1
-1
-1
-1
-1
-1
-1
-1
-1
-1
-1
-1
-1
-1
2
2
1
1
-1
-1
-1
-1
-1
-1
-1
-1
-1
-1
-1
-1
-1
-1
-1
-1
-1
-1
-1
-1
-1
-1
-1
-1
-1
-1
2
2
1
1
-1
-1
-1
-1
-1
-1
-1
-1
-1
-1
-1
-1
-1
-1
-1
-1
-1
-1
-1
-1
-1
-1
-1
-1
-1
-1
2
2
1
1
-1
-1
-1
-1
-1
-1
-1
-1
-1
-1
-1
-1
-1
-1
-1
-1
-1
-1
-1
-1
-1
-1
-1
-1
-1
-1
2
2
1
1
-1
-1
-1
-1
-1
-1
-1
-1
-1
-1
-1
-1
-1
-1
-1
-1
-1
-1
-1
-1
-1
-1
-1
-1
-1
-1
2
2
1
1
-1
-1
-1
-1
-1
-1
-1
-1
-1
-1
-1
-1
-1
-1
-1
-1
-1
-1
-1
-1
-1
-1
-1
-1
-1
-1
2
2
1
1
-1
-1
-1
-1
-1
-1
-1
-1
-1
-1
-1
-1
-1
-1
-1
-1
-1
-1
-1
-1
-1
-1
-1
-1
-1
-1
2
2
1
1
-1
-1
-1
-1
-1
-1
-1
-1
-1
-1
-1
-1
-1
-1
-1
-1
-1
-1
-1
-1
-1
-1
-1
-1
-1
-1
2
2
1
1
-1
-1
-1
-1
-1
-1
-1
-1
-1
-1
-1
-1
-1
-1
-1
-1
-1
-1
-1
-1
-1
-1
-1
-1
-1
-1
2
2
1
1
-1
-1
-1
-1
-1
-1
-1
-1
-1
-1
-1
-1
-1
-1
-1
-1
-1
-1
-1
-1
-1
-1
-1
-1
-1
-1
2
2
1
1
-1
-1
-1
-1
-1
-1
-1
-1
-1
-1
-1
-1
-1
-1
-1
-1
-1
-1
-1
-1
-1
-1
-1
-1
-1
-1
2
2
1
1
-1
-1
-1
-1
-1
-1
-1
-1
-1
-1
-1
-1
-1
-1
-1
-1
-1
-1
-1
-1
-1
-1
-1
-1
-1
-1
2
2
1
1
-1
-1
-1
-1
-1
-1
-1
-1
-1
-1
-1
-1
-1
-1
-1
-1
-1
-1
-1
-1
-1
-1
-1
-1
-1
-1
2
2
1
1
-1
-1
-1
-1
-1
-1
-1
-1
-1
-1
-1
-1
-1
-1
-1
-1
-1
-1
-1
-1
-1
-1
-1
-1
-1
-1
2
2
1
1
-1
-1
-1
-1
-1
-1
-1
-1
-1
-1
-1
-1
-1
-1
-1
-1
-1
-1
-1
-1
-1
-1
-1
-1
-1
-1
2
2
1
1
-1
-1
-1
-1
-1
-1
-1
-1
-1
-1
-1
-1
-1
-1
-1
-1
-1
-1
-1
-1
-1
-1
-1
-1
-1
-1
2
2
1
1
-1
-1
-1
-1
-1
-1
-1
-1
-1
-1
-1
-1
-1
-1
-1
-1
-1
-1
-1
-1
-1
-1
-1
-1
-1
-1
2
2
1
1
1
1
1
1
1
1
1
1
1
1
1
1
1
1
1
1
1
1
1
1
1
1
1
1
1
1
2
2
1
1
1
1
1
1
1
1
1
1
1
1
1
1
1
1
1
1
1
1
1
1
1
1
1
1
1
1
2
2
2
2
2
2
2
2
2
2
2
2
2
2
2
2
2
2
2
2
2
2
2
2
2
2
2
2
2
2
2
2
2
2
2
2
2
2
2
2
2
2
2
2
2
2
2
2
2
2
2
2
2
2
2
2
2
2
2
2
</DataArray>
<DataArray NumberOfComponents='1' type='Float32' Name='Velocity' format='ascii'>
0
0
0
0
0
0
0
0
0
0
0
0
0
0
0
0
0
0
0
0
0
0
0
0
0
0
0
0
0
0
0
0
0
0
0
0
0
0
0
0
0
0
0
0
0
0
0
0
0
0
0
0
0
0
0
0
0
0
0
0
0
0
0
0
0
0
0
0
0
0
0
0
0
0
0
0
0
0
0
0
0
0
0
0
0
0
0
0
0
0
0
0
0
0
0
0
0
0
0
0
0
0
0
0
0
0
0
0
0
0
0
0
0
0
0
0
0
0
0
0
0
0
0
0
8280.74
203.913
95.6323
182.296
22.2571
18.577
28.4645
224.892
620.484
374.624
132.532
14.1447
959.413
8.75807
21.4364
22.2673
132.328
95.4437
274.764
5.69158
55.897
35.2763
27.1241
26.1812
16.6847
26.3636
0
0
0
0
146.508
68.2894
143.657
164.229
21.4743
16.7584
26.2675
74.65
97.3742
176.691
5.74926
90.7813
153.537
29.1863
25.4995
45.6526
61.4051
4711.22
106.141
14.682
159.433
97.2555
25.999
24.6474
406.454
1385.24
0
0
0
0
30.68
151.156
13.1952
576.465
46.8117
18.8139
89.7077
26.7565
79.374
125.119
493.762
1197.66
15.6678
152.816
28.5428
5455.95
39.6804
305.075
10.617
15.625
25.2878
6.69368
18.9056
25.6747
18.9992
582.366
0
0
0
0
43.6052
5989.13
63.3606
53.7523
396.332
55.0849
263.217
1995.42
135.503
13774.2
365.953
4547.4
8.70037
18682.1
97.6923
10571
75.3596
59.2489
38.1839
25.7743
236.313
16.1559
12.2536
30.6218
158.848
29.9955
0
0
0
0
183.755
47.0589
328.294
43.6487
58.412
235.869
864.581
13217.4
28.0124
313.347
1005.63
649.807
61.4326
26.1778
51.6698
13.185
70.5794
31.5005
664.089
26.3302
27.1145
36.1437
16.7691
234.524
18.7257
299.028
0
0
0
0
57.7501
3443.25
41580
63.1355
34.2166
41.8309
536.845
149.559
17.806
156864
144.462
439.864
248.258
181.26
178292
20.8782
13.6787
118.255
16.4984
15.6397
28.9631
17.9833
26.842
15.3801
90.0954
27.8115
0
0
0
0
3455.51
107.935
25.7747
16.0399
18.7157
69.4588
34.045
101.116
78.5915
419.597
174.654
1059.67
18756.3
166.958
178286
12.678
393.418
45.1154
257.014
964.737
44.6212
38.9699
23.6078
28.4984
33.3657
41.8813
0
0
0
0
109.508
142.424
137.324
25.8448
650.673
493.457
65.2161
33.7187
69.4505
20.4644
65.8166
79.4969
30.0356
728.899
29.1288
17.4856
24.0464
76.0232
523.539
168.351
493.814
41.4053
30.4425
15.7012
17.5321
82.1549
0
0
0
0
842.761
77.4575
107.945
72.2342
21781.8
2747.09
134.533
358.213
24.6511
15990.8
37.1133
63.4849
13.1514
17016
102.808
40.3338
405.934
283.016
387.289
466.459
37.4771
23.1838
710.469
30.0637
28530.1
72.3331
0
0
0
0
133.324
122.212
16.5974
1678.49
3354.33
169.028
489.004
81.9073
30.2065
77.9244
41585.8
373.733
133.544
70.2049
113.685
24.2338
55.9395
130.066
4107.99
39.289
19.2618
1458.88
370.077
27.8753
1291.41
16.9478
0
0
0
0
0
0
0
0
0
0
0
0
0
0
0
0
0
0
0
0
0
0
0
0
0
0
0
0
0
0
0
0
0
0
0
0
0
0
0
0
0
0
0
0
0
0
0
0
0
0
0
0
0
0
0
0
0
0
0
0
0
0
0
0
0
0
0
0
0
0
0
0
0
0
0
0
0
0
0
0
0
0
0
0
0
0
0
0
0
0
0
0
0
0
0
0
0
0
0
0
0
0
0
0
0
0
0
0
0
0
0
0
0
0
0
0
0
0
0
0
0
0
0
0
0
0
0
0
0
0
0
0
0
0
0
0
0
0
0
0
0
0
0
0
0
0
0
0
0
0
0
0
0
0
0
0
0
0
0
0
0
0
0
0
0
0
0
0
0
0
0
0
0
0
0
0
0
0
0
0
0
0
0
0
0
0
0
0
0
0
0
0
0
0
0
0
0
0
0
0
0
0
0
0
0
0
0
0
0
0
0
0
0
0
0
0
0
0
0
0
0
0
0
0
0
0
0
0
0
0
0
0
0
0
0
0
0
0
0
0
0
0
0
0
0
0
0
0
0
0
0
0
0
0
0
0
0
0
0
0
0
0
0
0
0
0
0
0
0
0
0
0
0
0
0
0
0
0
0
0
0
0
0
0
0
0
0
0
0
0
0
0
0
0
0
0
0
0
0
0
0
0
0
0
0
0
0
0
0
0
0
0
0
0
0
0
0
0
0
0
0
0
0
0
0
0
0
0
0
0
0
0
0
0
0
0
0
0
0
0
0
0
0
0
0
0
0
0
0
0
0
0
0
0
0
0
0
0
0
0
0
0
0
0
0
0
0
0
0
0
0
0
0
0
0
0
0
0
0
0
0
0
0
0
0
0
0
0
0
0
0
0
0
0
0
0
0
0
0
0
0
0
0
0
0
0
0
0
0
0
0
0
0
0
0
0
0
0
0
0
0
0
0
0
0
0
0
0
0
0
0
0
0
0
0
0
0
0
0
0
0
0
0
0
0
0
0
0
0
0
0
0
0
0
0
0
0
0
0
0
0
0
0
0
0
0
0
0
0
0
0
0
0
0
0
0
0
0
0
0
0
0
0
0
0
0
0
0
0
0
0
0
0
0
0
0
0
0
0
0
0
0
0
0
0
0
0
0
0
0
0
0
0
0
0
0
0
0
0
0
0
0
0
0
0
0
0
0
0
0
0
0
0
0
0
0
0
0
0
0
0
0
0
0
0
0
0
0
0
0
0
0
0
0
0
0
0
0
0
0
0
0
0
0
0
0
0
0
0
0
0
0
0
0
0
0
0
0
0
0
0
0
0
0
0
0
0
0
0
0
0
0
0
0
0
0
0
0
0
0
0
0
0
0
0
0
0
0
0
0
0
0
0
0
0
0
0
0
0
0
0
0
0
0
0
0
0
0
0
0
0
0
0
0
0
0
0
0
0
0
0
0
0
0
0
0
0
0
0
0
0
0
0
0
0
0
0
0
0
0
0
0
0
0
0
0
0
0
0
0
0
0
0
0
0
0
0
0
0
0
0
0
0
0
0
0
0
0
0
0
0
0
0
0
0
0
0
0
0
0
0
0
0
0
0
0
0
0
0
0
0
0
0
0
0
0
0
0
0
0
0
0
0
0
0
0
0
0
0
0
0
0
0
0
0
0
0
0
0
0
0
0
0
0
0
0
0
0
0
0
0
0
0
0
0
0
0
0
0
0
0
0
0
0
0
0
0
0
0
0
0
0
0
0
0
0
0
0
0
0
0
0
0
0
0
0
0
0
0
0
0
0
0
0
0
0
0
0
0
0
0
0
0
0
0
0
0
0
0
0
0
0
0
0
0
0
0
0
0
0
0
0
0
0
0
0
0
0
0
0
0
0
0
0
0
0
0
0
0
0
0
0
0
0
0
0
0
0
0
0
0
0
0
0
0
0
0
0
0
0
0
0
0
0
0
0
0
0
0
0
0
0
0
0
0
0
0
0
0
0
0
0
0
0
0
0
0
0
0
0
0
0
0
0
0
0
0
0
0
0
0
0
0
0
0
0
0
0
0
0
0
0
0
0
0
0
0
0
0
0
0
0
0
0
0
0
0
0
0
0
0
0
0
0
0
0
0
0
0
0
0
0
0
0
0
0
0
0
0
0
0
0
0
0
0
0
0
0
0
0
0
0
0
0
0
0
0
0
0
0
0
0
0
0
0
0
0
0
0
0
0
0
0
0
0
0
0
0
0
0
0
0
0
0
0
0
0
0
0
0
0
0
0
0
0
0
0
0
0
0
0
0
0
0
0
0
0
0
0
0
0
0
0
0
0
0
0
0
0
0
0
0
0
0
0
0
0
0
0
0
0
0
0
0
0
0
0
0
0
0
0
0
0
0
0
0
0
0
0
0
0
0
0
0
0
0
0
0
0
0
0
0
0
0
0
0
0
0
0
0
0
0
0
0
0
0
0
0
0
0
0
0
0
0
0
0
0
0
0
0
0
0
0
0
0
0
0
0
0
0
0
0
0
0
0
0
0
0
0
0
0
0
0
0
0
0
0
0
0
0
0
0
0
0
0
0
0
0
0
0
0
0
0
0
0
0
0
0
0
0
0
0
0
0
0
0
0
0
0
0
0
0
0
0
0
0
0
0
0
0
0
0
0
0
0
0
0
0
0
0
0
0
0
0
0
0
0
0
0
0
0
0
0
0
0
0
0
0
0
0
0
0
0
0
0
0
0
0
0
0
0
0
0
0
0
0
0
0
0
0
0
0
0
0
0
0
0
0
0
0
0
0
0
0
0
0
0
0
0
0
0
0
0
0
0
0
0
0
0
0
0
0
0
0
0
0
0
0
0
0
0
0
0
0
0
0
0
0
0
0
0
0
0
0
0
0
0
0
0
0
0
0
0
0
0
0
0
0
0
0
0
0
0
0
0
0
0
0
0
0
0
0
0
0
0
0
0
0
0
0
0
0
0
0
0
0
0
0
0
0
0
0
0
0
0
0
0
0
0
0
0
0
0
0
0
0
0
0
0
0
0
0
0
0
0
0
0
0
0
0
0
0
0
0
0
0
0
0
0
0
0
0
0
0
0
0
0
0
0
0
0
0
0
0
0
0
0
0
0
0
0
0
0
0
0
0
0
0
0
0
0
0
0
0
0
0
0
0
0
0
0
0
0
0
0
0
0
0
0
0
0
0
0
0
0
0
0
0
0
0
0
0
0
0
0
0
0
0
0
0
0
0
0
0
0
0
0
0
0
0
0
0
0
0
0
0
0
0
0
0
0
0
0
0
0
0
0
0
0
0
0
0
0
0
0
0
0
0
0
0
0
0
0
0
0
0
0
0
0
0
0
0
0
0
0
0
0
0
0
0
0
0
0
0
0
0
0
0
0
0
0
0
0
0
0
0
0
0
0
0
0
0
0
0
0
0
0
0
0
0
0
0
0
0
0
0
0
0
0
0
0
0
0
0
0
0
0
0
0
0
0
0
0
0
0
0
0
0
0
0
0
0
0
0
0
0
0
0
0
0
0
0
0
0
0
0
0
0
0
0
0
0
0
0
0
0
0
0
0
0
0
0
0
0
0
0
0
0
0
0
0
0
0
0
0
0
0
0
0
0
0
0
0
0
0
0
0
0
0
0
0
0
0
0
0
0
0
0
0
0
0
0
0
0
0
0
0
0
0
0
0
0
0
0
0
0
0
0
0
0
0
0
0
0
0
0
0
0
0
0
0
0
0
0
0
0
0
0
0
0
0
0
0
0
0
0
0
0
0
0
0
0
0
0
0
0
0
0
0
0
</DataArray>
<DataArray NumberOfComponents='1' type='Float32' Name='pressure' format='ascii'>
0
0
0
0
0
0
0
0
0
0
0
0
0
0
0
0
0
0
0
0
0
0
0
0
0
0
0
0
0
0
0
0
0
0
0
0
0
0
0
0
0
0
0
0
0
0
0
0
0
0
0
0
0
0
0
0
0
0
0
0
0
0
0
0
0
0
0
0
0
0
0
0
0
0
0
0
0
0
0
0
0
0
0
0
0
0
0
0
0
0
0
0
0
0
0
0
0
0
0
0
0
0
0
0
0
0
0
0
0
0
0
0
0
0
0
0
0
0
0
26932.3
0
0
0
0
0
0
0
0
0
0
0
0
0
0
0
0
0
0
0
0
0
0
0
0
0
0
0
0
0
0
0
0
0
0
0
0
0
0
0
0
0
0
0
0
0
0
0
0
0
0
0
0
0
0
0
0
0
0
0
0
0
0
0
0
0
0
0
0
0
0
0
0
0
0
0
0
0
0
0
0
0
0
0
0
0
0
0
0
0
0
0
0
0
0
0
0
0
0
0
0
0
0
0
0
0
0
0
0
0
0
0
0
0
0
0
0
0
0
0
0
0
0
0
0
0
0
0
0
0
0
0
0
0
0
0
0
0
0
0
0
0
0
0
0
0
0
0
0
0
0
0
0
0
0
0
0
0
0
0
0
0
0
0
0
0
0
0
0
0
0
0
0
0
0
0
0
0
0
0
0
0
0
0
0
0
0
0
0
0
0
0
0
0
0
0
0
0
0
0
0
0
0
0
0
0
0
0
0
0
0
0
0
0
0
0
0
0
0
0
0
0
0
0
0
0
0
0
0
0
0
0
0
0
0
0
0
0
0
0
0
0
0
0
0
0
0
0
0
0
0
0
0
0
0
0
0
0
0
0
0
0
0
0
0
0
0
0
0
0
0
0
0
0
0
0
0
0
0
0
0
0
0
0
0
0
0
0
0
0
0
0
0
0
0
0
0
0
0
0
0
0
0
0
0
0
0
0
0
0
0
0
0
0
0
0
0
0
0
0
0
0
0
0
0
0
0
0
0
0
0
0
0
0
0
0
0
0
0
0
0
0
0
0
0
0
0
0
0
0
0
0
0
0
0
0
0
0
0
0
0
0
0
0
0
0
0
0
0
0
0
0
0
0
0
0
0
0
0
0
0
0
0
0
0
0
0
0
0
0
0
0
0
0
0
0
0
0
0
0
0
0
0
0
0
0
0
0
0
0
0
0
0
0
0
0
0
0
0
0
0
0
0
0
0
0
0
0
0
0
0
0
0
0
0
0
0
0
0
0
0
0
0
0
0
0
0
0
0
0
0
0
0
0
0
0
0
0
0
0
0
0
0
0
0
0
0
0
0
0
0
0
0
0
0
0
0
0
0
0
0
0
0
0
0
0
0
0
0
0
0
0
0
0
0
0
0
0
0
0
0
0
0
0
0
0
0
0
0
0
0
0
0
0
0
0
0
0
0
0
0
0
0
0
0
0
0
0
0
0
0
0
0
0
0
0
0
0
0
0
0
0
0
0
0
0
0
0
0
0
0
0
0
0
0
0
0
0
0
0
0
0
0
0
0
0
0
0
0
0
0
0
0
0
0
0
0
0
0
0
0
0
0
0
0
0
0
0
0
0
0
0
0
0
0
0
0
0
0
0
0
0
0
0
0
0
0
0
0
0
0
0
0
0
0
0
0
0
0
0
0
0
0
0
0
0
0
0
0
0
0
0
0
0
0
0
0
0
0
0
0
0
0
0
0
0
0
0
0
0
0
0
0
0
0
0
0
0
0
0
0
0
0
0
0
0
0
0
0
0
0
0
0
0
0
0
0
0
0
0
0
0
0
0
0
0
0
0
0
0
0
0
0
0
0
0
0
0
0
0
0
0
0
0
0
0
0
0
0
0
0
0
0
0
0
0
0
0
0
0
0
0
0
0
0
0
0
0
0
0
0
0
0
0
0
0
0
0
0
0
0
0
0
0
0
0
0
0
0
0
0
0
0
0
0
0
0
0
0
0
0
0
0
0
0
0
0
0
0
0
0
0
0
0
0
0
0
0
0
0
0
0
0
0
0
0
0
0
0
0
0
0
0
0
0
0
0
0
0
0
0
0
0
0
0
0
0
0
0
0
0
0
0
0
0
0
0
0
0
0
0
0
0
0
0
0
0
0
0
0
0
0
0
0
0
0
0
0
0
0
0
0
0
0
0
0
0
0
0
0
0
0
0
0
0
0
0
0
0
0
0
0
0
0
0
0
0
0
0
0
0
0
0
0
0
0
0
0
0
0
0
0
0
0
0
0
0
0
0
0
0
0
0
0
0
0
0
0
0
0
0
0
0
0
0
0
0
0
0
0
0
0
0
0
0
0
0
0
0
0
0
0
0
0
0
0
0
0
0
0
0
0
0
0
0
0
0
0
0
0
0
0
0
0
0
0
0
0
0
0
0
0
0
0
0
0
0
0
0
0
0
0
0
0
0
0
0
0
0
0
0
0
0
0
0
0
0
0
0
0
0
0
0
0
0
0
0
0
0
0
0
0
0
0
0
0
0
0
0
0
0
0
0
0
0
0
0
0
0
0
0
0
0
0
0
0
0
0
0
0
0
0
0
0
0
0
0
0
0
0
0
0
0
0
0
0
0
0
0
0
0
0
0
0
0
0
0
0
0
0
0
0
0
0
0
0
0
0
0
0
0
0
0
0
0
0
0
0
0
0
0
0
0
0
0
0
0
0
0
0
0
0
0
0
0
0
0
0
0
0
0
0
0
0
0
0
0
0
0
0
0
0
0
0
0
0
0
0
0
0
0
0
0
0
0
0
0
0
0
0
0
0
0
0
0
0
0
0
0
0
0
0
0
0
0
0
0
0
0
0
0
0
0
0
0
0
0
0
0
0
0
0
0
0
0
0
0
0
0
0
0
0
0
0
0
0
0
0
0
0
0
0
0
0
0
0
0
0
0
0
0
0
0
0
0
0
0
0
0
0
0
0
0
0
0
0
0
0
0
0
0
0
0
0
0
0
0
0
0
0
0
0
0
0
0
0
0
0
0
0
0
0
0
0
0
0
0
0
0
0
0
0
0
0
0
0
0
0
0
0
0
0
0
0
0
0
0
0
0
0
0
0
0
0
0
0
0
0
0
0
0
0
0
0
0
0
0
0
0
0
0
0
0
0
0
0
0
0
0
0
0
0
0
0
0
0
0
0
0
0
0
0
0
0
0
0
0
0
0
0
0
0
0
0
0
0
0
0
0
0
0
0
0
0
0
0
0
0
0
0
0
0
0
0
0
0
0
0
0
0
0
0
0
0
0
0
0
0
0
0
0
0
0
0
0
0
0
0
0
0
0
0
0
0
0
0
0
0
0
0
0
0
0
0
0
0
0
0
0
0
0
0
0
0
0
0
0
0
0
0
0
0
0
0
0
0
0
0
0
0
0
0
0
0
0
0
0
0
0
0
0
0
0
0
0
0
0
0
0
0
0
0
0
0
0
0
0
0
0
0
0
0
0
0
0
0
0
0
0
0
0
0
0
0
0
0
0
0
0
0
0
0
0
0
0
0
0
0
0
0
0
0
0
0
0
0
0
0
0
0
0
0
0
0
0
0
0
0
0
0
0
0
0
0
0
0
0
0
0
0
0
0
0
0
0
0
0
0
0
0
0
0
0
0
0
0
0
0
0
0
0
0
0
0
0
0
0
0
0
0
0
0
0
0
0
0
0
0
0
0
0
0
0
0
0
0
0
0
0
0
0
0
0
0
0
0
0
0
0
0
0
0
0
0
0
0
0
0
0
0
0
0
0
0
0
0
0
0
0
0
0
0
0
0
0
0
0
0
0
0
0
0
0
0
0
0
0
0
0
0
0
0
0
0
0
0
0
0
0
0
0
0
0
0
0
0
0
0
0
0
0
0
0
0
0
0
0
0
0
0
0
0
0
0
0
0
0
0
0
0
0
0
0
0
0
0
0
0
0
0
0
0
0
0
0
0
0
0
0
0
0
0
0
0
0
0
0
0
0
0
0
0
0
0
0
0
0
0
0
0
0
0
0
0
0
0
0
0
0
0
0
0
0
0
0
0
0
0
0
0
0
0
0
0
0
0
0
0
0
0
0
0
0
0
0
0
0
0
0
0
0
0
0
0
0
0
0
0
0
0
0
0
0
0
0
0
0
0
0
0
0
0
0
0
0
0
0
0
0
0
0
0
0
0
0
0
0
0
0
0
0
0
0
0
0
0
0
0
0
0
0
0
0
0
0
0
0
0
0
0
0
0
0
0
0
0
0
0
0
0
0
0
0
0
0
0
0
0
0
0
0
0
0
0
0
0
0
0
0
0
0
0
0
0
0
0
0
0
0
0
0
0
0
0
0
0
0
0
0
0
0
0
0
0
0
0
0
0
0
0
0
0
0
0
0
0
0
0
0
0
0
0
0
0
0
0
0
0
0
0
0
0
0
0
0
0
0
0
0
0
0
0
0
0
0
0
0
0
0
0
0
0
0
0
0
0
0
0
0
0
0
0
0
0
0
0
0
0
0
0
0
0
0
0
0
0
0
0
0
0
26932.3
0
0
0
0
0
0
0
0
0
0
0
0
0
0
0
0
0
0
0
0
0
0
0
0
0
0
0
0
0
0
0
0
0
0
0
0
0
0
0
0
0
0
0
0
0
0
0
0
0
0
0
0
0
0
0
0
0
0
0
0
0
0
0
0
0
0
0
0
0
0
0
0
0
0
0
0
0
0
0
0
0
0
0
0
0
0
0
0
0
0
</DataArray>
</PointData>
<Cells>
<DataArray type='Int32' Name='connectivity' format='ascii'>
0
1
2
3
4
5
6
7
8
9
10
11
12
13
14
15
16
17
18
19
20
21
22
23
24
25
26
27
28
29
30
31
32
33
34
35
36
37
38
39
40
41
42
43
44
45
46
47
48
49
50
51
52
53
54
55
56
57
58
59
60
61
62
63
64
65
66
67
68
69
70
71
72
73
74
75
76
77
78
79
80
81
82
83
84
85
86
87
88
89
90
91
92
93
94
95
96
97
98
99
100
101
102
103
104
105
106
107
108
109
110
111
112
113
114
115
116
117
118
119
120
121
122
123
124
125
126
127
128
129
130
131
132
133
134
135
136
137
138
139
140
141
142
143
144
145
146
147
148
149
150
151
152
153
154
155
156
157
158
159
160
161
162
163
164
165
166
167
168
169
170
171
172
173
174
175
176
177
178
179
180
181
182
183
184
185
186
187
188
189
190
191
192
193
194
195
196
197
198
199
200
201
202
203
204
205
206
207
208
209
210
211
212
213
214
215
216
217
218
219
220
221
222
223
224
225
226
227
228
229
230
231
232
233
234
235
236
237
238
239
240
241
242
243
244
245
246
247
248
249
250
251
252
253
254
255
256
257
258
259
260
261
262
263
264
265
266
267
268
269
270
271
272
273
274
275
276
277
278
279
280
281
282
283
284
285
286
287
288
289
290
291
292
293
294
295
296
297
298
299
300
301
302
303
304
305
306
307
308
309
310
311
312
313
314
315
316
317
318
319
320
321
322
323
324
325
326
327
328
329
330
331
332
333
334
335
336
337
338
339
340
341
342
343
344
345
346
347
348
349
350
351
352
353
354
355
356
357
358
359
360
361
362
363
364
365
366
367
368
369
370
371
372
373
374
375
376
377
378
379
380
381
382
383
384
385
386
387
388
389
390
391
392
393
394
395
396
397
398
399
400
401
402
403
404
405
406
407
408
409
410
411
412
413
414
415
416
417
418
419
420
421
422
423
424
425
426
427
428
429
430
431
432
433
434
435
436
437
438
439
440
441
442
443
444
445
446
447
448
449
450
451
452
453
454
455
456
457
458
459
460
461
462
463
464
465
466
467
468
469
470
471
472
473
474
475
476
477
478
479
480
481
482
483
484
485
486
487
488
489
490
491
492
493
494
495
496
497
498
499
500
501
502
503
504
505
506
507
508
509
510
511
512
513
514
515
516
517
518
519
520
521
522
523
524
525
526
527
528
529
530
531
532
533
534
535
536
537
538
539
540
541
542
543
544
545
546
547
548
549
550
551
552
553
554
555
556
557
558
559
560
561
562
563
564
565
566
567
568
569
570
571
572
573
574
575
576
577
578
579
580
581
582
583
584
585
586
587
588
589
590
591
592
593
594
595
596
597
598
599
600
601
602
603
604
605
606
607
608
609
610
611
612
613
614
615
616
617
618
619
620
621
622
623
624
625
626
627
628
629
630
631
632
633
634
635
636
637
638
639
640
641
642
643
644
645
646
647
648
649
650
651
652
653
654
655
656
657
658
659
660
661
662
663
664
665
666
667
668
669
670
671
672
673
674
675
676
677
678
679
680
681
682
683
684
685
686
687
688
689
690
691
692
693
694
695
696
697
698
699
700
701
702
703
704
705
706
707
708
709
710
711
712
713
714
715
716
717
718
719
720
721
722
723
724
725
726
727
728
729
730
731
732
733
734
735
736
737
738
739
740
741
742
743
744
745
746
747
748
749
750
751
752
753
754
755
756
757
758
759
760
761
762
763
764
765
766
767
768
769
770
771
772
773
774
775
776
777
778
779
780
781
782
783
784
785
786
787
788
789
790
791
792
793
794
795
796
797
798
799
800
801
802
803
804
805
806
807
808
809
810
811
812
813
814
815
816
817
818
819
820
821
822
823
824
825
826
827
828
829
830
831
832
833
834
835
836
837
838
839
840
841
842
843
844
845
846
847
848
849
850
851
852
853
854
855
856
857
858
859
860
861
862
863
864
865
866
867
868
869
870
871
872
873
874
875
876
877
878
879
880
881
882
883
884
885
886
887
888
889
890
891
892
893
894
895
896
897
898
899
900
901
902
903
904
905
906
907
908
909
910
911
912
913
914
915
916
917
918
919
920
921
922
923
924
925
926
927
928
929
930
931
932
933
934
935
936
937
938
939
940
941
942
943
944
945
946
947
948
949
950
951
952
953
954
955
956
957
958
959
960
961
962
963
964
965
966
967
968
969
970
971
972
973
974
975
976
977
978
979
980
981
982
983
984
985
986
987
988
989
990
991
992
993
994
995
996
997
998
999
1000
1001
1002
1003
1004
1005
1006
1007
1008
1009
1010
1011
1012
1013
1014
1015
1016
1017
1018
1019
1020
1021
1022
1023
1024
1025
1026
1027
1028
1029
1030
1031
1032
1033
1034
1035
1036
1037
1038
1039
1040
1041
1042
1043
1044
1045
1046