<?xml version='1.0' encoding='UTF-8'?>
<VTKFile xmlns='VTK' byte_order='LittleEndian' version='0.1' type='UnstructuredGrid'>
<UnstructuredGrid>
<Piece NumberOfCells='2100' NumberOfPoints='2100'>
<Points>
<DataArray NumberOfComponents='3' type='Float32' Name='Position' format='ascii'>
0 0 0
0 0 0.025
0 0 0.05
0 0 0.075
0 0 0.1
0 0 0.125
0 0 0.15
0 0 0.175
0 0 0.2
0 0 0.225
0 0 0.25
0 0 0.275
0 0 0.3
0 0 0.325
0 0 0.35
0 0 0.375
0 0 0.4
0 0 0.425
0 0 0.45
0 0 0.475
0 0 0.5
0 0 0.525
0 0 0.55
0 0 0.575
0 0 0.6
0 0 0.625
0 0 0.65
0 0 0.675
0 0 0.7
0 0 0.725
0.025 0 0
0.025 0 0.025
0.025 0 0.05
0.025 0 0.075
0.025 0 0.1
0.025 0 0.125
0.025 0 0.15
0.025 0 0.175
0.025 0 0.2
0.025 0 0.225
0.025 0 0.25
0.025 0 0.275
0.025 0 0.3
0.025 0 0.325
0.025 0 0.35
0.025 0 0.375
0.025 0 0.4
0.025 0 0.425
0.025 0 0.45
0.025 0 0.475
0.025 0 0.5
0.025 0 0.525
0.025 0 0.55
0.025 0 0.575
0.025 0 0.6
0.025 0 0.625
0.025 0 0.65
0.025 0 0.675
0.025 0 0.7
0.025 0 0.725
0.05 0 0
0.05 0 0.025
0.05 0 0.05
0.05 0 0.075
0.05 0 0.1
0.05 0 0.125
0.05 0 0.15
0.05 0 0.175
0.05 0 0.2
0.05 0 0.225
0.05 0 0.25
0.05 0 0.275
0.05 0 0.3
0.05 0 0.325
0.05 0 0.35
0.05 0 0.375
0.05 0 0.4
0.05 0 0.425
0.05 0 0.45
0.05 0 0.475
0.05 0 0.5
0.05 0 0.525
0.05 0 0.55
0.05 0 0.575
0.05 0 0.6
0.05 0 0.625
0.05 0 0.65
0.05 0 0.675
0.05 0 0.7
0.05 0 0.725
0.075 0 0
0.075 0 0.025
0.075 0 0.05
0.075 0 0.075
0.075 0 0.1
0.075 0 0.125
0.075 0 0.15
0.075 0 0.175
0.075 0 0.2
0.075 0 0.225
0.075 0 0.25
0.075 0 0.275
0.075 0 0.3
0.075 0 0.325
0.075 0 0.35
0.075 0 0.375
0.075 0 0.4
0.075 0 0.425
0.075 0 0.45
0.075 0 0.475
0.075 0 0.5
0.075 0 0.525
0.075 0 0.55
0.075 0 0.575
0.075 0 0.6
0.075 0 0.625
0.075 0 0.65
0.075 0 0.675
0.075 0 0.7
0.075 0 0.725
0.1 0 0
0.1 0 0.025
0.1 0 0.05
0.1 0 0.075
-4786.98 0 -3665.49
9.16503 0 -159.836
-43.671 0 -40.7154
140.774 0 2.30072
3.57143 0 -6.36912
7.92148 0 -1.29569
-14.0625 0 -5.19143
-36.7761 0 179
-355.819 0 -294.373
-230.948 0 -152.928
97.4091 0 24.8479
-2.86576 0 -0.412746
-446.758 0 527.914
-2.81627 0 4.24488
-8.8324 0 -2.22643
-7.80725 0 -3.62746
-89.9117 0 0.89032
-64.2025 0 -1.67454
158.625 0 48.277
-1.29106 0 1.96795
4.63977 0 -18.3357
12.6162 0 -6.69803
7.03945 0 -6.70933
6.92059 0 -6.18853
-7.25347 0 3.26685
-11.5291 0 -5.11821
0.125 0 0
0.125 0 0.025
0.125 0 0.05
0.125 0 0.075
70.1921 0 116.368
37.2044 0 -32.2649
-67.1584 0 -85.9071
-4.63439 0 95.9614
3.23702 0 -6.02628
7.23859 0 -0.601499
19.1027 0 12.7461
2.75471 0 61.6604
33.7669 0 -55.1765
110.336 0 -63.1196
3.58 0 12.9619
-38.7154 0 57.9777
108.807 0 27.3663
7.90078 0 -8.88964
-2.80728 0 -8.26443
-24.9767 0 -9.56081
0.779497 0 -32.5202
-1214.58 0 2958.61
59.5458 0 1.35505
1.33295 0 -1.90123
56.2034 0 -15.0038
-13.3801 0 -20.2052
-3.68465 0 -5.44993
-3.18116 0 -5.16777
-0.935225 0 65.422
727.831 0 506.622
0.15 0 0
0.15 0 0.025
0.15 0 0.05
0.15 0 0.075
-18.4107 0 30.3634
19.4674 0 132.356
-2.75899 0 22.2259
-8.14662 0 384.801
-29.1244 0 26.4029
4.90814 0 -2.90348
-42.8636 0 66.6228
10.8062 0 -6.92155
46.2307 0 -28.0918
67.6964 0 -55.814
307.045 0 33.7297
-717.526 0 -338.483
-2.70024 0 -1.4467
-27.2835 0 -95.225
-12.9362 0 -5.97648
-405.634 0 -3585.72
17.4172 0 -11.9046
197.771 0 49.6227
-5.34807 0 4.34693
-3.64986 0 -1.10639
-2.38138 0 -5.81885
-0.947384 0 1.22608
-8.04769 0 2.25285
-3.32285 0 -5.57168
-8.21564 0 2.9068
367.504 0 125.083
0.175 0 0
0.175 0 0.025
0.175 0 0.05
0.175 0 0.075
-10.6549 0 47.9669
-4405.73 0 -94.51
-4.16825 0 -39.6132
31.5703 0 -15.576
254.983 0 18.6153
-24.8769 0 37.101
-201.096 0 4.49555
1128.05 0 803.003
-103.028 0 0.670616
921.477 0 -8606.4
-31.3695 0 -254.455
-964.472 0 2933.06
-2.84991 0 1.97989
2107.91 0 -11552.7
4.59107 0 -59.6077
-5552.64 0 4755.3
-17.1907 0 57.503
-28.3868 0 -19.6798
4.49472 0 -15.6
-0.383696 0 -7.88454
-86.0466 0 1.11729
3.28038 0 -2.0813
-0.775624 0 -0.459137
-5.1283 0 -7.55799
-32.4837 0 -83.1225
-10.9426 0 -9.07088
0.2 0 0
0.2 0 0.025
0.2 0 0.05
0.2 0 0.075
151.023 0 1.10777
-35.8612 0 30.5258
-192.383 0 89.8121
11.8514 0 -18.3087
30.1167 0 -16.2469
-1.51423 0 195.337
564.435 0 -13.7965
8703.25 0 -346.103
-11.5946 0 -6.8913
-115.851 0 -143.391
260.776 0 -602.931
-48.0492 0 -460.223
-7.21978 0 -32.1059
-0.576254 0 -8.14954
-2.67439 0 -27.0749
-7.67891 0 4.36966
37.1968 0 2.27696
2.15152 0 -10.0948
-400.042 0 145.238
-1.12449 0 -8.15451
-3.17698 0 -8.31831
-10.4871 0 -9.14558
-4.10581 0 -2.59218
-85.3985 0 1.52921
-1.10617 0 -3.47571
137.066 0 142.389
0.225 0 0
0.225 0 0.025
0.225 0 0.05
0.225 0 0.075
44.5772 0 31.1999
-2798.04 0 148.298
27802.1 0 -4670.83
34.2297 0 -15.7723
11.9736 0 -11.5288
-14.2908 0 -18.83
154.448 0 -337.709
63.055 0 -74.5331
7.07282 0 -1.57745
113867 0 26307.5
-84.3691 0 58.2049
143.057 0 273.045
117.307 0 105.988
107.332 0 30.2919
81476 0 43492
-7.35365 0 -2.98155
3.56608 0 0.472226
48.3925 0 -52.9711
-3.61952 0 -2.74733
4.03241 0 -1.43999
13.0342 0 -5.21887
-4.5062 0 -3.02438
-3.71404 0 -7.19825
-0.162891 0 -2.12284
1.17858 0 30.6841
-4.23867 0 -6.70927
0.25 0 0
0.25 0 0.025
0.25 0 0.05
0.25 0 0.075
1939.16 0 1776.9
62.9389 0 -48.8326
-14.6602 0 -3.14329
3.45472 0 -1.77082
6.43638 0 -2.80789
48.8033 0 -2.49371
13.842 0 -10.8446
-45.5064 0 -50.9126
-27.3963 0 -42.3099
-288.036 0 -110.851
79.665 0 -67.9573
-367.654 0 594.566
2106.8 0 -11600.3
53.5374 0 -94.761
81473.4 0 43490.9
-7.48789 0 4.75623
-194.475 0 189.363
14.1508 0 -17.2414
9.84224 0 94.8848
4.85409 0 325.984
13.3946 0 -12.0102
-11.9974 0 -9.63605
-2.1052 0 -6.08549
1.39951 0 -8.91193
1.90506 0 -11.0005
20.1077 0 -5.93013
0.275 0 0
0.275 0 0.025
0.275 0 0.05
0.275 0 0.075
65.729 0 70.3549
-54.7879 0 108.275
90.1071 0 19.773
-10.6363 0 -6.48876
281.186 0 -358.987
-189.128 0 325.754
30.7164 0 -28.4942
4.91923 0 -14.8389
5.79298 0 -41.9526
-13.5347 0 17.1449
17.0067 0 -35.7399
42.8235 0 -27.0104
-17.0999 0 23.0509
47.2277 0 -471.19
-7.70088 0 -8.04461
11.8217 0 5.66743
-9.61941 0 -3.45936
41.1988 0 -20.3563
326.447 0 -3.57197
56.1922 0 -23.8358
9.18123 0 354.796
-22.5561 0 -0.637072
-4.13679 0 -7.87477
-1.64446 0 -2.16409
-2.12738 0 -2.72465
33.4616 0 -42.1675
0.3 0 0
0.3 0 0.025
0.3 0 0.05
0.3 0 0.075
403.751 0 -485.72
59.0471 0 4.70597
-24.944 0 96.6811
-53.3802 0 10.3179
14632.2 0 -2146.68
-324.823 0 -1783.37
-41.7944 0 95.906
-209.607 0 115.39
9.48122 0 -5.83202
-2669.17 0 9671.98
-27.5878 0 13.1097
-1.65998 0 -33.8924
-0.239648 0 -1.25152
-45.9832 0 12175.9
62.0102 0 -18.0632
23.0879 0 28.0964
-300.291 0 -50.561
-154.919 0 -94.2399
-191.042 0 186.93
-277.784 0 -120.826
-20.1127 0 -0.765671
-3.91836 0 -5.27252
3.91635 0 227.317
-19.9075 0 4.30524
-14685.3 0 -17645.7
-23.5819 0 -38.9265
0.325 0 0
0.325 0 0.025
0.325 0 0.05
0.325 0 0.075
95.2871 0 -0.181298
45.0856 0 106.858
3.73644 0 22.3527
-116.895 0 -1350.01
122.646 0 -2716.44
90.6156 0 -68.7708
237.014 0 -245.902
25.8193 0 -42.3753
3.50823 0 -11.462
29.2613 0 -37.3237
27806.3 0 -4669.72
196.644 0 162.156
79.5521 0 49.6727
-46.7646 0 17.1033
-58.6303 0 4.55554
-3.29982 0 -7.52228
-6.1718 0 -28.4468
92.6347 0 -22.7343
-107.094 0 -3101.74
10.8388 0 -16.5404
5.07355 0 -2.89813
315.124 0 1095.26
7.25912 0 235.35
19.9823 0 10.8574
493.813 0 998.929
-16.3382 0 15.6149
0.35 0 0
0.35 0 0.025
0.35 0 0.05
0.35 0 0.075
0.35 0 0.1
0.35 0 0.125
0.35 0 0.15
0.35 0 0.175
0.35 0 0.2
0.35 0 0.225
0.35 0 0.25
0.35 0 0.275
0.35 0 0.3
0.35 0 0.325
0.35 0 0.35
0.35 0 0.375
0.35 0 0.4
0.35 0 0.425
0.35 0 0.45
0.35 0 0.475
0.35 0 0.5
0.35 0 0.525
0.35 0 0.55
0.35 0 0.575
0.35 0 0.6
0.35 0 0.625
0.35 0 0.65
0.35 0 0.675
0.35 0 0.7
0.35 0 0.725
0.375 0 0
0.375 0 0.025
0.375 0 0.05
0.375 0 0.075
0.375 0 0.1
0.375 0 0.125
0.375 0 0.15
0.375 0 0.175
0.375 0 0.2
0.375 0 0.225
0.375 0 0.25
0.375 0 0.275
0.375 0 0.3
0.375 0 0.325
0.375 0 0.35
0.375 0 0.375
0.375 0 0.4
0.375 0 0.425
0.375 0 0.45
0.375 0 0.475
0.375 0 0.5
0.375 0 0.525
0.375 0 0.55
0.375 0 0.575
0.375 0 0.6
0.375 0 0.625
0.375 0 0.65
0.375 0 0.675
0.375 0 0.7
0.375 0 0.725
0.4 0 0
0.4 0 0.025
0.4 0 0.05
0.4 0 0.075
0.4 0 0.1
0.4 0 0.125
0.4 0 0.15
0.4 0 0.175
0.4 0 0.2
0.4 0 0.225
0.4 0 0.25
0.4 0 0.275
0.4 0 0.3
0.4 0 0.325
0.4 0 0.35
0.4 0 0.375
0.4 0 0.4
0.4 0 0.425
0.4 0 0.45
0.4 0 0.475
0.4 0 0.5
0.4 0 0.525
0.4 0 0.55
0.4 0 0.575
0.4 0 0.6
0.4 0 0.625
0.4 0 0.65
0.4 0 0.675
0.4 0 0.7
0.4 0 0.725
0.425 0 0
0.425 0 0.025
0.425 0 0.05
0.425 0 0.075
0.425 0 0.1
0.425 0 0.125
0.425 0 0.15
0.425 0 0.175
0.425 0 0.2
0.425 0 0.225
0.425 0 0.25
0.425 0 0.275
0.425 0 0.3
0.425 0 0.325
0.425 0 0.35
0.425 0 0.375
0.425 0 0.4
0.425 0 0.425
0.425 0 0.45
0.425 0 0.475
0.425 0 0.5
0.425 0 0.525
0.425 0 0.55
0.425 0 0.575
0.425 0 0.6
0.425 0 0.625
0.425 0 0.65
0.425 0 0.675
0.425 0 0.7
0.425 0 0.725
0.45 0 0
0.45 0 0.025
0.45 0 0.05
0.45 0 0.075
0.45 0 0.1
0.45 0 0.125
0.45 0 0.15
0.45 0 0.175
0.45 0 0.2
0.45 0 0.225
0.45 0 0.25
0.45 0 0.275
0.45 0 0.3
0.45 0 0.325
0.45 0 0.35
0.45 0 0.375
0.45 0 0.4
0.45 0 0.425
0.45 0 0.45
0.45 0 0.475
0.45 0 0.5
0.45 0 0.525
0.45 0 0.55
0.45 0 0.575
0.45 0 0.6
0.45 0 0.625
0.45 0 0.65
0.45 0 0.675
0.45 0 0.7
0.45 0 0.725
0.475 0 0
0.475 0 0.025
0.475 0 0.05
0.475 0 0.075
0.475 0 0.1
0.475 0 0.125
0.475 0 0.15
0.475 0 0.175
0.475 0 0.2
0.475 0 0.225
0.475 0 0.25
0.475 0 0.275
0.475 0 0.3
0.475 0 0.325
0.475 0 0.35
0.475 0 0.375
0.475 0 0.4
0.475 0 0.425
0.475 0 0.45
0.475 0 0.475
0.475 0 0.5
0.475 0 0.525
0.475 0 0.55
0.475 0 0.575
0.475 0 0.6
0.475 0 0.625
0.475 0 0.65
0.475 0 0.675
0.475 0 0.7
0.475 0 0.725
0.5 0 0
0.5 0 0.025
0.5 0 0.05
0.5 0 0.075
0.5 0 0.1
0.5 0 0.125
0.5 0 0.15
0.5 0 0.175
0.5 0 0.2
0.5 0 0.225
0.5 0 0.25
0.5 0 0.275
0.5 0 0.3
0.5 0 0.325
0.5 0 0.35
0.5 0 0.375
0.5 0 0.4
0.5 0 0.425
0.5 0 0.45
0.5 0 0.475
0.5 0 0.5
0.5 0 0.525
0.5 0 0.55
0.5 0 0.575
0.5 0 0.6
0.5 0 0.625
0.5 0 0.65
0.5 0 0.675
0.5 0 0.7
0.5 0 0.725
0.525 0 0
0.525 0 0.025
0.525 0 0.05
0.525 0 0.075
0.525 0 0.1
0.525 0 0.125
0.525 0 0.15
0.525 0 0.175
0.525 0 0.2
0.525 0 0.225
0.525 0 0.25
0.525 0 0.275
0.525 0 0.3
0.525 0 0.325
0.525 0 0.35
0.525 0 0.375
0.525 0 0.4
0.525 0 0.425
0.525 0 0.45
0.525 0 0.475
0.525 0 0.5
0.525 0 0.525
[...]
<PointData>
<DataArray NumberOfComponents='1' type='Int32' Name='ParticleType' format='ascii'>
2
2
2
2
2
2
2
2
2
2
2
2
2
2
2
2
2
2
2
2
2
2
2
2
2
2
2
2
2
2
2
2
2
2
2
2
2
2
2
2
2
2
2
2
2
2
2
2
2
2
2
2
2
2
2
2
2
2
2
2
2
2
1
1
1
1
1
1
1
1
1
1
1
1
1
1
1
1
1
1
1
1
1
1
1
1
1
1
1
1
2
2
1
1
1
1
1
1
1
1
1
1
1
1
1
1
1
1
1
1
1
1
1
1
1
1
1
1
1
1
2
2
1
1
0
0
0
0
0
0
0
0
0
0
0
0
0
0
0
0
0
0
0
0
0
0
0
0
0
0
2
2
1
1
0
0
0
0
0
0
0
0
0
0
0
0
0
0
0
0
0
0
0
0
0
0
0
0
0
0
2
2
1
1
0
0
0
0
0
0
0
0
0
0
0
0
0
0
0
0
0
0
0
0
0
0
0
0
0
0
2
2
1
1
0
0
0
0
0
0
0
0
0
0
0
0
0
0
0
0
0
0
0
0
0
0
0
0
0
0
2
2
1
1
0
0
0
0
0
0
0
0
0
0
0
0
0
0
0
0
0
0
0
0
0
0
0
0
0
0
2
2
1
1
0
0
0
0
0
0
0
0
0
0
0
0
0
0
0
0
0
0
0
0
0
0
0
0
0
0
2
2
1
1
0
0
0
0
0
0
0
0
0
0
0
0
0
0
0
0
0
0
0
0
0
0
0
0
0
0
2
2
1
1
0
0
0
0
0
0
0
0
0
0
0
0
0
0
0
0
0
0
0
0
0
0
0
0
0
0
2
2
1
1
0
0
0
0
0
0
0
0
0
0
0
0
0
0
0
0
0
0
0
0
0
0
0
0
0
0
2
2
1
1
0
0
0
0
0
0
0
0
0
0
0
0
0
0
0
0
0
0
0
0
0
0
0
0
0
0
2
2
1
1
-1
-1
-1
-1
-1
-1
-1
-1
-1
-1
-1
-1
-1
-1
-1
-1
-1
-1
-1
-1
-1
-1
-1
-1
-1
-1
2
2
1
1
-1
-1
-1
-1
-1
-1
-1
-1
-1
-1
-1
-1
-1
-1
-1
-1
-1
-1
-1
-1
-1
-1
-1
-1
-1
-1
2
2
1
1
-1
-1
-1
-1
-1
-1
-1
-1
-1
-1
-1
-1
-1
-1
-1
-1
-1
-1
-1
-1
-1
-1
-1
-1
-1
-1
2
2
1
1
-1
-1
-1
-1
-1
-1
-1
-1
-1
-1
-1
-1
-1
-1
-1
-1
-1
-1
-1
-1
-1
-1
-1
-1
-1
-1
2
2
1
1
-1
-1
-1
-1
-1
-1
-1
-1
-1
-1
-1
-1
-1
-1
-1
-1
-1
-1
-1
-1
-1
-1
-1
-1
-1
-1
2
2
1
1
-1
-1
-1
-1
-1
-1
-1
-1
-1
-1
-1
-1
-1
-1
-1
-1
-1
-1
-1
-1
-1
-1
-1
-1
-1
-1
2
2
1
1
-1
-1
-1
-1
-1
-1
-1
-1
-1
-1
-1
-1
-1
-1
-1
-1
-1
-1
-1
-1
-1
-1
-1
-1
-1
-1
2
2
1
1
-1
-1
-1
-1
-1
-1
-1
-1
-1
-1
-1
-1
-1
-1
-1
-1
-1
-1
-1
-1
-1
-1
-1
-1
-1
-1
2
2
1
1
-1
-1
-1
-1
-1
-1
-1
-1
-1
-1
-1
-1
-1
-1
-1
-1
-1
-1
-1
-1
-1
-1
-1
-1
-1
-1
2
2
1
1
-1
-1
-1
-1
-1
-1
-1
-1
-1
-1
-1
-1
-1
-1
-1
-1
-1
-1
-1
-1
-1
-1
-1
-1
-1
-1
2
2
1
1
-1
-1
-1
-1
-1
-1
-1
-1
-1
-1
-1
-1
-1
-1
-1
-1
-1
-1
-1
-1
-1
-1
-1
-1
-1
-1
2
2
1
1
-1
-1
-1
-1
-1
-1
-1
-1
-1
-1
-1
-1
-1
-1
-1
-1
-1
-1
-1
-1
-1
-1
-1
-1
-1
-1
2
2
1
1
-1
-1
-1
-1
-1
-1
-1
-1
-1
-1
-1
-1
-1
-1
-1
-1
-1
-1
-1
-1
-1
-1
-1
-1
-1
-1
2
2
1
1
-1
-1
-1
-1
-1
-1
-1
-1
-1
-1
-1
-1
-1
-1
-1
-1
-1
-1
-1
-1
-1
-1
-1
-1
-1
-1
2
2
1
1
-1
-1
-1
-1
-1
-1
-1
-1
-1
-1
-1
-1
-1
-1
-1
-1
-1
-1
-1
-1
-1
-1
-1
-1
-1
-1
2
2
1
1
-1
-1
-1
-1
-1
-1
-1
-1
-1
-1
-1
-1
-1
-1
-1
-1
-1
-1
-1
-1
-1
-1
-1
-1
-1
-1
2
2
1
1
-1
-1
-1
-1
-1
-1
-1
-1
-1
-1
-1
-1
-1
-1
-1
-1
-1
-1
-1
-1
-1
-1
-1
-1
-1
-1
2
2
1
1
-1
-1
-1
-1
-1
-1
-1
-1
-1
-1
-1
-1
-1
-1
-1
-1
-1
-1
-1
-1
-1
-1
-1
-1
-1
-1
2
2
1
1
-1
-1
-1
-1
-1
-1
-1
-1
-1
-1
-1
-1
-1
-1
-1
-1
-1
-1
-1
-1
-1
-1
-1
-1
-1
-1
2
2
1
1
-1
-1
-1
-1
-1
-1
-1
-1
-1
-1
-1
-1
-1
-1
-1
-1
-1
-1
-1
-1
-1
-1
-1
-1
-1
-1
2
2
1
1
-1
-1
-1
-1
-1
-1
-1
-1
-1
-1
-1
-1
-1
-1
-1
-1
-1
-1
-1
-1
-1
-1
-1
-1
-1
-1
2
2
1
1
-1
-1
-1
-1
-1
-1
-1
-1
-1
-1
-1
-1
-1
-1
-1
-1
-1
-1
-1
-1
-1
-1
-1
-1
-1
-1
2
2
1
1
-1
-1
-1
-1
-1
-1
-1
-1
-1
-1
-1
-1
-1
-1
-1
-1
-1
-1
-1
-1
-1
-1
-1
-1
-1
-1
2
2
1
1
-1
-1
-1
-1
-1
-1
-1
-1
-1
-1
-1
-1
-1
-1
-1
-1
-1
-1
-1
-1
-1
-1
-1
-1
-1
-1
2
2
1
1
-1
-1
-1
-1
-1
-1
-1
-1
-1
-1
-1
-1
-1
-1
-1
-1
-1
-1
-1
-1
-1
-1
-1
-1
-1
-1
2
2
1
1
-1
-1
-1
-1
-1
-1
-1
-1
-1
-1
-1
-1
-1
-1
-1
-1
-1
-1
-1
-1
-1
-1
-1
-1
-1
-1
2
2
1
1
-1
-1
-1
-1
-1
-1
-1
-1
-1
-1
-1
-1
-1
-1
-1
-1
-1
-1
-1
-1
-1
-1
-1
-1
-1
-1
2
2
1
1
-1
-1
-1
-1
-1
-1
-1
-1
-1
-1
-1
-1
-1
-1
-1
-1
-1
-1
-1
-1
-1
-1
-1
-1
-1
-1
2
2
1
1
-1
-1
-1
-1
-1
-1
-1
-1
-1
-1
-1
-1
-1
-1
-1
-1
-1
-1
-1
-1
-1
-1
-1
-1
-1
-1
2
2
1
1
-1
-1
-1
-1
-1
-1
-1
-1
-1
-1
-1
-1
-1
-1
-1
-1
-1
-1
-1
-1
-1
-1
-1
-1
-1
-1
2
2
1
1
-1
-1
-1
-1
-1
-1
-1
-1
-1
-1
-1
-1
-1
-1
-1
-1
-1
-1
-1
-1
-1
-1
-1
-1
-1
-1
2
2
1
1
-1
-1
-1
-1
-1
-1
-1
-1
-1
-1
-1
-1
-1
-1
-1
-1
-1
-1
-1
-1
-1
-1
-1
-1
-1
-1
2
2
1
1
-1
-1
-1
-1
-1
-1
-1
-1
-1
-1
-1
-1
-1
-1
-1
-1
-1
-1
-1
-1
-1
-1
-1
-1
-1
-1
2
2
1
1
-1
-1
-1
-1
-1
-1
-1
-1
-1
-1
-1
-1
-1
-1
-1
-1
-1
-1
-1
-1
-1
-1
-1
-1
-1
-1
2
2
1
1
-1
-1
-1
-1
-1
-1
-1
-1
-1
-1
-1
-1
-1
-1
-1
-1
-1
-1
-1
-1
-1
-1
-1
-1
-1
-1
2
2
1
1
-1
-1
-1
-1
-1
-1
-1
-1
-1
-1
-1
-1
-1
-1
-1
-1
-1
-1
-1
-1
-1
-1
-1
-1
-1
-1
2
2
1
1
-1
-1
-1
-1
-1
-1
-1
-1
-1
-1
-1
-1
-1
-1
-1
-1
-1
-1
-1
-1
-1
-1
-1
-1
-1
-1
2
2
1
1
-1
-1
-1
-1
-1
-1
-1
-1
-1
-1
-1
-1
-1
-1
-1
-1
-1
-1
-1
-1
-1
-1
-1
-1
-1
-1
2
2
1
1
-1
-1
-1
-1
-1
-1
-1
-1
-1
-1
-1
-1
-1
-1
-1
-1
-1
-1
-1
-1
-1
-1
-1
-1
-1
-1
2
2
1
1
-1
-1
-1
-1
-1
-1
-1
-1
-1
-1
-1
-1
-1
-1
-1
-1
-1
-1
-1
-1
-1
-1
-1
-1
-1
-1
2
2
1
1
-1
-1
-1
-1
-1
-1
-1
-1
-1
-1
-1
-1
-1
-1
-1
-1
-1
-1
-1
-1
-1
-1
-1
-1
-1
-1
2
2
1
1
-1
-1
-1
-1
-1
-1
-1
-1
-1
-1
-1
-1
-1
-1
-1
-1
-1
-1
-1
-1
-1
-1
-1
-1
-1
-1
2
2
1
1
-1
-1
-1
-1
-1
-1
-1
-1
-1
-1
-1
-1
-1
-1
-1
-1
-1
-1
-1
-1
-1
-1
-1
-1
-1
-1
2
2
1
1
-1
-1
-1
-1
-1
-1
-1
-1
-1
-1
-1
-1
-1
-1
-1
-1
-1
-1
-1
-1
-1
-1
-1
-1
-1
-1
2
2
1
1
-1
-1
-1
-1
-1
-1
-1
-1
-1
-1
-1
-1
-1
-1
-1
-1
-1
-1
-1
-1
-1
-1
-1
-1
-1
-1
2
2
1
1
-1
-1
-1
-1
-1
-1
-1
-1
-1
-1
-1
-1
-1
-1
-1
-1
-1
-1
-1
-1
-1
-1
-1
-1
-1
-1
2
2
1
1
-1
-1
-1
-1
-1
-1
-1
-1
-1
-1
-1
-1
-1
-1
-1
-1
-1
-1
-1
-1
-1
-1
-1
-1
-1
-1
2
2
1
1
-1
-1
-1
-1
-1
-1
-1
-1
-1
-1
-1
-1
-1
-1
-1
-1
-1
-1
-1
-1
-1
-1
-1
-1
-1
-1
2
2
1
1
-1
-1
-1
-1
-1
-1
-1
-1
-1
-1
-1
-1
-1
-1
-1
-1
-1
-1
-1
-1
-1
-1
-1
-1
-1
-1
2
2
1
1
-1
-1
-1
-1
-1
-1
-1
-1
-1
-1
-1
-1
-1
-1
-1
-1
-1
-1
-1
-1
-1
-1
-1
-1
-1
-1
2
2
1
1
-1
-1
-1
-1
-1
-1
-1
-1
-1
-1
-1
-1
-1
-1
-1
-1
-1
-1
-1
-1
-1
-1
-1
-1
-1
-1
2
2
1
1
-1
-1
-1
-1
-1
-1
-1
-1
-1
-1
-1
-1
-1
-1
-1
-1
-1
-1
-1
-1
-1
-1
-1
-1
-1
-1
2
2
1
1
1
1
1
1
1
1
1
1
1
1
1
1
1
1
1
1
1
1
1
1
1
1
1
1
1
1
2
2
1
1
1
1
1
1
1
1
1
1
1
1
1
1
1
1
1
1
1
1
1
1
1
1
1
1
1
1
2
2
2
2
2
2
2
2
2
2
2
2
2
2
2
2
2
2
2
2
2
2
2
2
2
2
2
2
2
2
2
2
2
2
2
2
2
2
2
2
2
2
2
2
2
2
2
2
2
2
2
2
2
2
2
2
2
2
2
2
</DataArray>
<DataArray NumberOfComponents='1' type='Float32' Name='Velocity' format='ascii'>
0
0
0
0
0
0
0
0
0
0
0
0
0
0
0
0
0
0
0
0
0
0
0
0
0
0
0
0
0
0
0
0
0
0
0
0
0
0
0
0
0
0
0
0
0
0
0
0
0
0
0
0
0
0
0
0
0
0
0
0
0
0
0
0
0
0
0
0
0
0
0
0
0
0
0
0
0
0
0
0
0
0
0
0
0
0
0
0
0
0
0
0
0
0
0
0
0
0
0
0
0
0
0
0
0
0
0
0
0
0
0
0
0
0
0
0
0
0
0
0
0
0
0
0
8274.77
194.127
88.5167
181.979
13.07
14.2362
22.6785
234.472
614.157
369.058
134.308
5.83202
966.849
5.04701
15.7675
15.3265
131.813
94.335
277.349
6.81105
46.2446
29.3246
19.1937
18.3709
17.9919
19.5601
0
0
0
0
154.745
61.1206
135.725
174.015
12.2241
12.7922
29.5212
84.4443
88.7735
171.446
14.1547
98.6332
155.428
20.6781
15.9227
40.6055
51.6073
4720.28
105.618
5.34413
156.886
89.1118
18.0391
16.5113
416.251
1390.81
0
0
0
0
38.1471
160.844
22.7971
586.262
52.3511
10.4812
97.6561
19.2974
73.5019
118.476
494.683
1193.42
6.82837
143.358
22.0103
5446.21
32.7296
307.212
8.59689
7.51918
16.4514
4.89027
18.8788
17.4507
19.6996
585.399
0
0
0
0
53.0588
5988.9
53.6132
48.0914
396.845
62.7478
263.113
2001.07
134.937
13764.4
356.224
4556.71
5.51864
18672.4
87.9145
10577.4
84.6566
52.7551
28.5754
15.9955
236.25
7.86267
3.08832
22.1143
149.676
22.2579
0
0
0
0
183.33
52.2597
332.24
34.7543
52.7171
245.669
864.246
13217
20.9917
305.641
996.625
640.059
51.8327
16.3901
41.907
14.5204
69.9574
21.7978
667.328
16.6097
17.6622
28.9252
9.6215
234.509
9.23197
305.971
0
0
0
0
62.3526
3443.74
41578.4
58.032
26.0938
33.312
527.9
141.858
12.7993
156866
149.637
448.511
254.667
183.53
178296
14.0725
6.27893
110.706
8.88176
8.68647
22.9073
10.8271
17.8639
5.58864
99.8941
19.1262
0
0
0
0
3462.12
101.397
20.388
7.01015
10.7869
67.7417
26.4537
93.4571
70.0693
415.907
167.989
1067.98
18746.6
158.31
178291
14.5093
400.15
36.7955
266.772
974.537
37.2835
32.0736
14.2358
18.8247
23.6285
37.4209
0
0
0
0
116.313
151.039
138.854
18.3034
642.906
501.884
57.8346
24.1581
59.7138
26.3575
56.7068
73.5246
36.8439
719.146
20.9144
17.1356
17.9993
70.8062
523.285
164.472
503.61
39.4345
21.4983
7.04804
8.97612
74.0652
0
0
0
0
835.183
77.0259
117.374
72.9308
21780.4
2737.45
143.403
362.809
17.0037
16000.2
39.3538
53.694
3.36171
17025.8
99.2562
46.9967
404.105
277.719
394.037
462.407
35.225
14.7108
720.268
29.432
28522.6
63.6626
0
0
0
0
132.632
131.13
26.1144
1668.73
3344.54
162.756
481.862
73.2479
20.5655
69.7925
41584.2
379.834
138.279
72.5162
113.784
14.7842
46.3073
127.115
4098.19
30.4603
12.0871
1468.29
379.872
30.0264
1300.18
19.8511
0
0
0
0
0
0
0
0
0
0
0
0
0
0
0
0
0
0
0
0
0
0
0
0
0
0
0
0
0
0
0
0
0
0
0
0
0
0
0
0
0
0
0
0
0
0
0
0
0
0
0
0
0
0
0
0
0
0
0
0
0
0
0
0
0
0
0
0
0
0
0
0
0
0
0
0
0
0
0
0
0
0
0
0
0
0
0
0
0
0
0
0
0
0
0
0
0
0
0
0
0
0
0
0
0
0
0
0
0
0
0
0
0
0
0
0
0
0
0
0
0
0
0
0
0
0
0
0
0
0
0
0
0
0
0
0
0
0
0
0
0
0
0
0
0
0
0
0
0
0
0
0
0
0
0
0
0
0
0
0
0
0
0
0
0
0
0
0
0
0
0
0
0
0
0
0
0
0
0
0
0
0
0
0
0
0
0
0
0
0
0
0
0
0
0
0
0
0
0
0
0
0
0
0
0
0
0
0
0
0
0
0
0
0
0
0
0
0
0
0
0
0
0
0
0
0
0
0
0
0
0
0
0
0
0
0
0
0
0
0
0
0
0
0
0
0
0
0
0
0
0
0
0
0
0
0
0
0
0
0
0
0
0
0
0
0
0
0
0
0
0
0
0
0
0
0
0
0
0
0
0
0
0
0
0
0
0
0
0
0
0
0
0
0
0
0
0
0
0
0
0
0
0
0
0
0
0
0
0
0
0
0
0
0
0
0
0
0
0
0
0
0
0
0
0
0
0
0
0
0
0
0
0
0
0
0
0
0
0
0
0
0
0
0
0
0
0
0
0
0
0
0
0
0
0
0
0
0
0
0
0
0
0
0
0
0
0
0
0
0
0
0
0
0
0
0
0
0
0
0
0
0
0
0
0
0
0
0
0
0
0
0
0
0
0
0
0
0
0
0
0
0
0
0
0
0
0
0
0
0
0
0
0
0
0
0
0
0
0
0
0
0
0
0
0
0
0
0
0
0
0
0
0
0
0
0
0
0
0
0
0
0
0
0
0
0
0
0
0
0
0
0
0
0
0
0
0
0
0
0
0
0
0
0
0
0
0
0
0
0
0
0
0
0
0
0
0
0
0
0
0
0
0
0
0
0
0
0
0
0
0
0
0
0
0
0
0
0
0
0
0
0
0
0
0
0
0
0
0
0
0
0
0
0
0
0
0
0
0
0
0
0
0
0
0
0
0
0
0
0
0
0
0
0
0
0
0
0
0
0
0
0
0
0
0
0
0
0
0
0
0
0
0
0
0
0
0
0
0
0
0
0
0
0
0
0
0
0
0
0
0
0
0
0
0
0
0
0
0
0
0
0
0
0
0
0
0
0
0
0
0
0
0
0
0
0
0
0
0
0
0
0
0
0
0
0
0
0
0
0
0
0
0
0
0
0
0
0
0
0
0
0
0
0
0
0
0
0
0
0
0
0
0
0
0
0
0
0
0
0
0
0
0
0
0
0
0
0
0
0
0
0
0
0
0
0
0
0
0
0
0
0
0
0
0
0
0
0
0
0
0
0
0
0
0
0
0
0
0
0
0
0
0
0
0
0
0
0
0
0
0
0
0
0
0
0
0
0
0
0
0
0
0
0
0
0
0
0
0
0
0
0
0
0
0
0
0
0
0
0
0
0
0
0
0
0
0
0
0
0
0
0
0
0
0
0
0
0
0
0
0
0
0
0
0
0
0
0
0
0
0
0
0
0
0
0
0
0
0
0
0
0
0
0
0
0
0
0
0
0
0
0
0
0
0
0
0
0
0
0
0
0
0
0
0
0
0
0
0
0
0
0
0
0
0
0
0
0
0
0
0
0
0
0
0
0
0
0
0
0
0
0
0
0
0
0
0
0
0
0
0
0
0
0
0
0
0
0
0
0
0
0
0
0
0
0
0
0
0
0
0
0
0
0
0
0
0
0
0
0
0
0
0
0
0
0
0
0
0
0
0
0
0
0
0
0
0
0
0
0
0
0
0
0
0
0
0
0
0
0
0
0
0
0
0
0
0
0
0
0
0
0
0
0
0
0
0
0
0
0
0
0
0
0
0
0
0
0
0
0
0
0
0
0
0
0
0
0
0
0
0
0
0
0
0
0
0
0
0
0
0
0
0
0
0
0
0
0
0
0
0
0
0
0
0
0
0
0
0
0
0
0
0
0
0
0
0
0
0
0
0
0
0
0
0
0
0
0
0
0
0
0
0
0
0
0
0
0
0
0
0
0
0
0
0
0
0
0
0
0
0
0
0
0
0
0
0
0
0
0
0
0
0
0
0
0
0
0
0
0
0
0
0
0
0
0
0
0
0
0
0
0
0
0
0
0
0
0
0
0
0
0
0
0
0
0
0
0
0
0
0
0
0
0
0
0
0
0
0
0
0
0
0
0
0
0
0
0
0
0
0
0
0
0
0
0
0
0
0
0
0
0
0
0
0
0
0
0
0
0
0
0
0
0
0
0
0
0
0
0
0
0
0
0
0
0
0
0
0
0
0
0
0
0
0
0
0
0
0
0
0
0
0
0
0
0
0
0
0
0
0
0
0
0
0
0
0
0
0
0
0
0
0
0
0
0
0
0
0
0
0
0
0
0
0
0
0
0
0
0
0
0
0
0
0
0
0
0
0
0
0
0
0
0
0
0
0
0
0
0
0
0
0
0
0
0
0
0
0
0
0
0
0
0
0
0
0
0
0
0
0
0
0
0
0
0
0
0
0
0
0
0
0
0
0
0
0
0
0
0
0
0
0
0
0
0
0
0
0
0
0
0
0
0
0
0
0
0
0
0
0
0
0
0
0
0
0
0
0
0
0
0
0
0
0
0
0
0
0
0
0
0
0
0
0
0
0
0
0
0
0
0
0
0
0
0
0
0
0
0
0
0
0
0
0
0
0
0
0
0
0
0
0
0
0
0
0
0
0
0
0
0
0
0
0
0
0
0
0
0
0
0
0
0
0
0
0
0
0
0
0
0
0
0
0
0
0
0
0
0
0
0
0
0
0
0
0
0
0
0
0
0
0
0
0
0
0
0
0
0
0
0
0
0
0
0
0
0
0
0
0
0
0
0
0
0
0
0
0
0
0
0
0
0
0
0
0
0
0
0
0
0
0
0
0
0
0
0
0
0
0
0
0
0
0
0
0
0
0
0
0
0
0
0
0
0
0
0
0
0
0
0
0
0
0
0
0
0
0
0
0
0
0
0
0
0
0
0
0
0
0
0
0
0
0
0
0
0
0
0
0
0
0
0
0
0
0
0
0
0
0
0
0
0
0
0
0
0
0
0
0
0
0
0
0
0
0
0
0
0
0
0
0
0
0
0
0
0
0
0
0
0
0
0
0
0
0
0
0
0
0
0
0
0
0
0
0
0
0
0
0
0
0
0
0
0
0
0
0
0
0
0
0
0
0
0
0
0
0
0
0
0
0
0
0
0
0
0
0
0
0
0
0
0
0
0
0
0
0
0
0
0
0
0
0
0
0
0
0
0
0
0
0
0
0
0
0
0
0
0
0
0
0
0
0
0
0
0
0
0
0
0
0
0
0
0
0
0
0
0
0
0
0
0
0
0
0
0
0
0
0
0
0
0
0
0
0
0
0
0
0
0
0
0
0
0
0
0
0
0
0
0
0
0
0
0
0
0
0
0
0
0
0
0
0
0
0
0
0
0
0
0
0
0
0
0
0
0
0
0
0
0
0
0
0
0
0
0
0
0
0
0
0
0
0
0
0
0
0
0
0
0
0
0
0
0
0
0
0
0
0
0
0
0
0
0
0
0
0
0
0
0
0
0
0
0
0
0
0
0
</DataArray>
<DataArray NumberOfComponents='1' type='Float32' Name='pressure' format='ascii'>
0
0
0
0
0
0
0
0
0
0
0
0
0
0
0
0
0
0
0
0
0
0
0
0
0
0
0
0
0
0
0
0
0
0
0
0
0
0
0
0
0
0
0
0
0
0
0
0
0
0
0
0
0
0
0
0
0
0
0
0
0
0
0
0
0
0
0
0
0
0
0
0
0
0
0
0
0
0
0
0
0
0
0
0
0
0
0
0
0
0
0
0
0
0
0
0
0
0
0
0
0
0
0
0
0
0
0
0
0
0
0
0
0
0
0
0
0
0
0
26932.3
0
0
0
0
0
0
0
0
0
0
0
0
0
0
0
0
0
0
0
0
0
0
0
0
0
0
0
0
0
0
0
0
0
0
0
0
0
0
0
0
0
0
0
0
0
0
0
0
0
0
0
0
0
0
0
0
0
0
0
0
0
0
0
0
0
0
0
0
0
0
0
0
0
0
0
0
0
0
0
0
0
0
0
0
0
0
0
0
0
0
0
0
0
0
0
0
0
0
0
0
0
0
0
0
0
0
0
0
0
0
0
0
0
0
0
0
0
0
0
0
0
0
0
0
0
0
0
0
0
0
0
0
0
0
0
0
0
0
0
0
0
0
0
0
0
0
0
0
0
0
0
0
0
0
0
0
0
0
0
0
0
0
0
0
0
0
0
0
0
0
0
0
0
0
0
0
0
0
0
0
0
0
0
0
0
0
0
0
0
0
0
0
0
0
0
0
0
0
0
0
0
0
0
0
0
0
0
0
0
0
0
0
0
0
0
0
0
0
0
0
0
0
0
0
0
0
0
0
0
0
0
0
0
0
0
0
0
0
0
0
0
0
0
0
0
0
0
0
0
0
0
0
0
0
0
0
0
0
0
0
0
0
0
0
0
0
0
0
0
0
0
0
0
0
0
0
0
0
0
0
0
0
0
0
0
0
0
0
0
0
0
0
0
0
0
0
0
0
0
0
0
0
0
0
0
0
0
0
0
0
0
0
0
0
0
0
0
0
0
0
0
0
0
0
0
0
0
0
0
0
0
0
0
0
0
0
0
0
0
0
0
0
0
0
0
0
0
0
0
0
0
0
0
0
0
0
0
0
0
0
0
0
0
0
0
0
0
0
0
0
0
0
0
0
0
0
0
0
0
0
0
0
0
0
0
0
0
0
0
0
0
0
0
0
0
0
0
0
0
0
0
0
0
0
0
0
0
0
0
0
0
0
0
0
0
0
0
0
0
0
0
0
0
0
0
0
0
0
0
0
0
0
0
0
0
0
0
0
0
0
0
0
0
0
0
0
0
0
0
0
0
0
0
0
0
0
0
0
0
0
0
0
0
0
0
0
0
0
0
0
0
0
0
0
0
0
0
0
0
0
0
0
0
0
0
0
0
0
0
0
0
0
0
0
0
0
0
0
0
0
0
0
0
0
0
0
0
0
0
0
0
0
0
0
0
0
0
0
0
0
0
0
0
0
0
0
0
0
0
0
0
0
0
0
0
0
0
0
0
0
0
0
0
0
0
0
0
0
0
0
0
0
0
0
0
0
0
0
0
0
0
0
0
0
0
0
0
0
0
0
0
0
0
0
0
0
0
0
0
0
0
0
0
0
0
0
0
0
0
0
0
0
0
0
0
0
0
0
0
0
0
0
0
0
0
0
0
0
0
0
0
0
0
0
0
0
0
0
0
0
0
0
0
0
0
0
0
0
0
0
0
0
0
0
0
0
0
0
0
0
0
0
0
0
0
0
0
0
0
0
0
0
0
0
0
0
0
0
0
0
0
0
0
0
0
0
0
0
0
0
0
0
0
0
0
0
0
0
0
0
0
0
0
0
0
0
0
0
0
0
0
0
0
0
0
0
0
0
0
0
0
0
0
0
0
0
0
0
0
0
0
0
0
0
0
0
0
0
0
0
0
0
0
0
0
0
0
0
0
0
0
0
0
0
0
0
0
0
0
0
0
0
0
0
0
0
0
0
0
0
0
0
0
0
0
0
0
0
0
0
0
0
0
0
0
0
0
0
0
0
0
0
0
0
0
0
0
0
0
0
0
0
0
0
0
0
0
0
0
0
0
0
0
0
0
0
0
0
0
0
0
0
0
0
0
0
0
0
0
0
0
0
0
0
0
0
0
0
0
0
0
0
0
0
0
0
0
0
0
0
0
0
0
0
0
0
0
0
0
0
0
0
0
0
0
0
0
0
0
0
0
0
0
0
0
0
0
0
0
0
0
0
0
0
0
0
0
0
0
0
0
0
0
0
0
0
0
0
0
0
0
0
0
0
0
0
0
0
0
0
0
0
0
0
0
0
0
0
0
0
0
0
0
0
0
0
0
0
0
0
0
0
0
0
0
0
0
0
0
0
0
0
0
0
0
0
0
0
0
0
0
0
0
0
0
0
0
0
0
0
0
0
0
0
0
0
0
0
0
0
0
0
0
0
0
0
0
0
0
0
0
0
0
0
0
0
0
0
0
0
0
0
0
0
0
0
0
0
0
0
0
0
0
0
0
0
0
0
0
0
0
0
0
0
0
0
0
0
0
0
0
0
0
0
0
0
0
0
0
0
0
0
0
0
0
0
0
0
0
0
0
0
0
0
0
0
0
0
0
0
0
0
0
0
0
0
0
0
0
0
0
0
0
0
0
0
0
0
0
0
0
0
0
0
0
0
0
0
0
0
0
0
0
0
0
0
0
0
0
0
0
0
0
0
0
0
0
0
0
0
0
0
0
0
0
0
0
0
0
0
0
0
0
0
0
0
0
0
0
0
0
0
0
0
0
0
0
0
0
0
0
0
0
0
0
0
0
0
0
0
0
0
0
0
0
0
0
0
0
0
0
0
0
0
0
0
0
0
0
0
0
0
0
0
0
0
0
0
0
0
0
0
0
0
0
0
0
0
0
0
0
0
0
0
0
0
0
0
0
0
0
0
0
0
0
0
0
0
0
0
0
0
0
0
0
0
0
0
0
0
0
0
0
0
0
0
0
0
0
0
0
0
0
0
0
0
0
0
0
0
0
0
0
0
0
0
0
0
0
0
0
0
0
0
0
0
0
0
0
0
0
0
0
0
0
0
0
0
0
0
0
0
0
0
0
0
0
0
0
0
0
0
0
0
0
0
0
0
0
0
0
0
0
0
0
0
0
0
0
0
0
0
0
0
0
0
0
0
0
0
0
0
0
0
0
0
0
0
0
0
0
0
0
0
0
0
0
0
0
0
0
0
0
0
0
0
0
0
0
0
0
0
0
0
0
0
0
0
0
0
0
0
0
0
0
0
0
0
0
0
0
0
0
0
0
0
0
0
0
0
0
0
0
0
0
0
0
0
0
0
0
0
0
0
0
0
0
0
0
0
0
0
0
0
0
0
0
0
0
0
0
0
0
0
0
0
0
0
0
0
0
0
0
0
0
0
0
0
0
0
0
0
0
0
0
0
0
0
0
0
0
0
0
0
0
0
0
0
0
0
0
0
0
0
0
0
0
0
0
0
0
0
0
0
0
0
0
0
0
0
0
0
0
0
0
0
0
0
0
0
0
0
0
0
0
0
0
0
0
0
0
0
0
0
0
0
0
0
0
0
0
0
0
0
0
0
0
0
0
0
0
0
0
0
0
0
0
0
0
0
0
0
0
0
0
0
0
0
0
0
0
0
0
0
0
0
0
0
0
0
0
0
0
0
0
0
0
0
0
0
0
0
0
0
0
0
0
0
0
0
0
0
0
0
0
0
0
0
0
0
0
0
0
0
0
0
0
0
0
0
0
0
0
0
0
0
0
0
0
0
0
0
0
0
0
0
0
0
0
0
0
0
0
0
0
0
0
0
0
0
0
0
0
0
0
0
0
0
0
0
0
0
0
0
0
0
0
0
0
0
0
0
0
0
0
0
0
0
0
0
0
0
0
0
0
0
0
0
0
0
0
0
0
0
0
0
0
0
0
0
0
0
0
0
0
0
0
0
0
0
0
0
0
0
0
0
0
0
0
0
0
0
0
0
0
0
0
0
0
0
0
0
0
0
0
0
0
0
0
0
0
0
0
0
0
0
0
0
0
0
0
0
0
0
0
0
0
0
0
0
0
0
0
0
0
0
0
0
0
0
0
0
0
0
0
0
0
0
0
0
0
0
0
0
0
0
0
0
0
0
0
0
0
0
0
0
0
0
0
0
0
0
0
0
0
0
0
0
0
0
0
0
0
0
0
0
0
0
0
0
0
0
0
0
0
0
0
0
0
0
0
0
0
0
0
0
0
0
0
0
0
0
0
0
0
0
0
0
0
0
0
0
0
0
0
0
0
0
0
0
0
0
0
0
0
0
0
0
0
0
0
0
0
0
0
0
0
0
0
0
0
0
0
0
0
0
0
0
0
0
0
0
0
0
0
0
0
0
0
0
0
0
0
0
0
0
0
0
0
0
0
0
0
0
0
0
0
0
0
0
0
0
0
0
0
0
0
0
0
0
0
0
0
0
0
0
0
0
0
0
0
0
0
0
0
0
0
0
0
0
0
0
0
0
0
0
0
0
0
0
0
0
0
0
0
0
0
0
0
26932.3
0
0
0
0
0
0
0
0
0
0
0
0
0
0
0
0
0
0
0
0
0
0
0
0
0
0
0
0
0
0
0
0
0
0
0
0
0
0
0
0
0
0
0
0
0
0
0
0
0
0
0
0
0
0
0
0
0
0
0
0
0
0
0
0
0
0
0
0
0
0
0
0
0
0
0
0
0
0
0
0
0
0
0
0
0
0
0
0
0
0
</DataArray>
</PointData>
<Cells>
<DataArray type='Int32' Name='connectivity' format='ascii'>
0
1
2
3
4
5
6
7
8
9
10
11
12
13
14
15
16
17
18
19
20
21
22
23
24
25
26
27
28
29
30
31
32
33
34
35
36
37
38
39
40
41
42
43
44
45
46
47
48
49
50
51
52
53
54
55
56
57
58
59
60
61
62
63
64
65
66
67
68
69
70
71
72
73
74
75
76
77
78
79
80
81
82
83
84
85
86
87
88
89
90
91
92
93
94
95
96
97
98
99
100
101
102
103
104
105
106
107
108
109
110
111
112
113
114
115
116
117
118
119
120
121
122
123
124
125
126
127
128
129
130
131
132
133
134
135
136
137
138
139
140
141
142
143
144
145
146
147
148
149
150
151
152
153
154
155
156
157
158
159
160
161
162
163
164
165
166
167
168
169
170
171
172
173
174
175
176
177
178
179
180
181
182
183
184
185
186
187
188
189
190
191
192
193
194
195
196
197
198
199
200
201
202
203
204
205
206
207
208
209
210
211
212
213
214
215
216
217
218
219
220
221
222
223
224
225
226
227
228
229
230
231
232
233
234
235
236
237
238
239
240
241
242
243
244
245
246
247
248
249
250
251
252
253
254
255
256
257
258
259
260
261
262
263
264
265
266
267
268
269
270
271
272
273
274
275
276
277
278
279
280
281
282
283
284
285
286
287
288
289
290
291
292
293
294
295
296
297
298
299
300
301
302
303
304
305
306
307
308
309
310
311
312
313
314
315
316
317
318
319
320
321
322
323
324
325
326
327
328
329
330
331
332
333
334
335
336
337
338
339
340
341
342
343
344
345
346
347
348
349
350
351
352
353
354
355
356
357
358
359
360
361
362
363
364
365
366
367
368
369
370
371
372
373
374
375
376
377
378
379
380
381
382
383
384
385
386
387
388
389
390
391
392
393
394
395
396
397
398
399
400
401
402
403
404
405
406
407
408
409
410
411
412
413
414
415
416
417
418
419
420
421
422
423
424
425
426
427
428
429
430
431
432
433
434
435
436
437
438
439
440
441
442
443
444
445
446
447
448
449
450
451
452
453
454
455
456
457
458
459
460
461
462
463
464
465
466
467
468
469
470
471
472
473
474
475
476
477
478
479
480
481
482
483
484
485
486
487
488
489
490
491
492
493
494
495
496
497
498
499
500
501
502
503
504
505
506
507
508
509
510
511
512
513
514
515
516
517
518
519
520
521
522
523
524
525
526
527
528
529
530
531
532
533
534
535
536
537
538
539
540
541
542
543
544
545
546
547
548
549
550
551
552
553
554
555
556
557
558
559
560
561
562
563
564
565
566
567
568
569
570
571
572
573
574
575
576
577
578
579
580
581
582
583
584
585
586
587
588
589
590
591
592
593
594
595
596
597
598
599
600
601
602
603
604
605
606
607
608
609
610
611
612
613
614
615
616
617
618
619
620
621
622
623
624
625
626
627
628
629
630
631
632
633
634
635
636
637
638
639
640
641
642
643
644
645
646
647
648
649
650
651
652
653
654
655
656
657
658
659
660
661
662
663
664
665
666
667
668
669
670
671
672
673
674
675
676
677
678
679
680
681
682
683
684
685
686
687
688
689
690
691
692
693
694
695
696
697
698
699
700
701
702
703
704
705
706
707
708
709
710
711
712
713
714
715
716
717
718
719
720
721
722
723
724
725
726
727
728
729
730
731
732
733
734
735
736
737
738
739
740
741
742
743
744
745
746
747
748
749
750
751
752
753
754
755
756
757
758
759
760
761
762
763
764
765
766
767
768
769
770
771
772
773
774
775
776
777
778
779
780
781
782
783
784
785
786
787
788
789
790
791
792
793
794
795
796
797
798
799
800
801
802
803
804
805
806
807
808
809
810
811
812
813
814
815
816
817
818
819
820
821
822
823
824
825
826
827
828
829
830
831
832
833
834
835
836
837
838
839
840
841
842
843
844
845
846
847
848
849
850
851
852
853
854
855
856
857
858
859
860
861
862
863
864
865
866
867
868
869
870
871
872
873
874
875
876
877
878
879
880
881
882
883
884
885
886
887
888
889
890
891
892
893
894
895
896
897
898
899
900
901
902
903
904
905
906
907
908
909
910
911
912
913
914
915
916
917
918
919
920
921
922
923
924
925
926
927
928
929
930
931
932
933
934
935
936
937
938
939
940
941
942
943
944
945
946
947
948
949
950
951
952
953
954
955
956
957
958
959
960
961
962
963
964
965
966
967
968
969
970
971
972
973
974
975
976
977
978
979
980
981
982
983
984
985
986
987
988
989
990
991
992
993
994
995
996
997
998
999
1000
1001
1002
1003
1004
1005
1006
1007
1008
1009
1010
1011
1012
1013
1014
1015
1016
1017
1018
1019
1020
1021
1022
1023
1024
1025
1026
1027
1028
1029
1030
1031
1032
1033
1034
1035
1036
1037
1038
1039
1040
1041
1042
1043
1044
1045
1046