<?xml version='1.0' encoding='UTF-8'?>
<VTKFile xmlns='VTK' byte_order='LittleEndian' version='0.1' type='UnstructuredGrid'>
<UnstructuredGrid>
<Piece NumberOfCells='2100' NumberOfPoints='2100'>
<Points>
<DataArray NumberOfComponents='3' type='Float32' Name='Position' format='ascii'>
0 0 0
0 0 0.025
0 0 0.05
0 0 0.075
0 0 0.1
0 0 0.125
0 0 0.15
0 0 0.175
0 0 0.2
0 0 0.225
0 0 0.25
0 0 0.275
0 0 0.3
0 0 0.325
0 0 0.35
0 0 0.375
0 0 0.4
0 0 0.425
0 0 0.45
0 0 0.475
0 0 0.5
0 0 0.525
0 0 0.55
0 0 0.575
0 0 0.6
0 0 0.625
0 0 0.65
0 0 0.675
0 0 0.7
0 0 0.725
0.025 0 0
0.025 0 0.025
0.025 0 0.05
0.025 0 0.075
0.025 0 0.1
0.025 0 0.125
0.025 0 0.15
0.025 0 0.175
0.025 0 0.2
0.025 0 0.225
0.025 0 0.25
0.025 0 0.275
0.025 0 0.3
0.025 0 0.325
0.025 0 0.35
0.025 0 0.375
0.025 0 0.4
0.025 0 0.425
0.025 0 0.45
0.025 0 0.475
0.025 0 0.5
0.025 0 0.525
0.025 0 0.55
0.025 0 0.575
0.025 0 0.6
0.025 0 0.625
0.025 0 0.65
0.025 0 0.675
0.025 0 0.7
0.025 0 0.725
0.05 0 0
0.05 0 0.025
0.05 0 0.05
0.05 0 0.075
0.05 0 0.1
0.05 0 0.125
0.05 0 0.15
0.05 0 0.175
0.05 0 0.2
0.05 0 0.225
0.05 0 0.25
0.05 0 0.275
0.05 0 0.3
0.05 0 0.325
0.05 0 0.35
0.05 0 0.375
0.05 0 0.4
0.05 0 0.425
0.05 0 0.45
0.05 0 0.475
0.05 0 0.5
0.05 0 0.525
0.05 0 0.55
0.05 0 0.575
0.05 0 0.6
0.05 0 0.625
0.05 0 0.65
0.05 0 0.675
0.05 0 0.7
0.05 0 0.725
0.075 0 0
0.075 0 0.025
0.075 0 0.05
0.075 0 0.075
0.075 0 0.1
0.075 0 0.125
0.075 0 0.15
0.075 0 0.175
0.075 0 0.2
0.075 0 0.225
0.075 0 0.25
0.075 0 0.275
0.075 0 0.3
0.075 0 0.325
0.075 0 0.35
0.075 0 0.375
0.075 0 0.4
0.075 0 0.425
0.075 0 0.45
0.075 0 0.475
0.075 0 0.5
0.075 0 0.525
0.075 0 0.55
0.075 0 0.575
0.075 0 0.6
0.075 0 0.625
0.075 0 0.65
0.075 0 0.675
0.075 0 0.7
0.075 0 0.725
0.1 0 0
0.1 0 0.025
0.1 0 0.05
0.1 0 0.075
-3079.15 0 -2357.38
6.45085 0 -109.766
-27.2333 0 -24.9375
93.4604 0 2.22797
2.03555 0 -3.66777
4.27161 0 -1.01018
-8.7958 0 -2.87001
-24.1943 0 119.02
-233.248 0 -192.358
-151.382 0 -99.6238
63.3172 0 16.9578
-1.66722 0 0.186123
-283.666 0 336.291
-1.64639 0 3.32052
-5.02655 0 -1.03264
-4.47634 0 -1.7701
-55.6444 0 1.09163
-39.7224 0 -0.487432
89.4039 0 27.7374
-0.288375 0 0.17832
2.35419 0 -6.86129
6.02145 0 -3.20171
3.58198 0 -3.44071
3.50794 0 -3.17662
-2.96792 0 1.06157
-7.33117 0 -2.57753
0.125 0 0
0.125 0 0.025
0.125 0 0.05
0.125 0 0.075
48.9872 0 81.8457
25.7667 0 -21.5625
-45.8452 0 -58.1121
-2.24374 0 50.4508
1.85286 0 -3.49522
3.92449 0 -0.650705
12.3679 0 8.73428
2.04517 0 39.3864
22.183 0 -35.5428
72.1217 0 -40.4993
2.42206 0 9.13858
-24.001 0 36.6446
69.4161 0 18.0139
4.74666 0 -4.86573
-1.69699 0 -4.60616
-15.4269 0 -5.38967
0.469758 0 -19.4358
-748.135 0 1823.1
32.0858 0 1.21916
0.643978 0 -1.02456
16.5144 0 -5.91929
0.0790544 0 -1.67628
-0.428821 0 -2.40392
-0.284294 0 -2.32955
0.53595 0 -0.237629
430.816 0 300.03
0.15 0 0
0.15 0 0.025
0.15 0 0.05
0.15 0 0.075
-12.675 0 21.9419
13.3594 0 90.6551
-1.85844 0 16.0375
-4.74097 0 232.081
-18.5423 0 17.5122
3.01913 0 -1.26927
-28.6353 0 45.2635
7.01197 0 -3.96863
30.3523 0 -17.7875
44.4336 0 -35.952
179.121 0 20.0579
-437.273 0 -205.631
-1.56363 0 -0.412823
-17.1999 0 -59.6717
-8.13024 0 -3.19976
-246.554 0 -2179
10.8424 0 -6.83209
120.099 0 30.6642
-3.24573 0 3.25786
-2.11795 0 -0.221757
-0.100604 0 -2.53028
-0.158166 0 -0.100768
-3.30382 0 0.662335
-0.353564 0 -2.47098
-3.36123 0 0.943322
223.154 0 76.496
0.175 0 0
0.175 0 0.025
0.175 0 0.05
0.175 0 0.075
-7.36063 0 34.2408
-2849 0 -60.4599
-2.5998 0 -26.0923
20.813 0 -9.53214
152.019 0 11.6189
-15.361 0 23.5193
-132.689 0 3.61926
703.746 0 501.58
-67.9526 0 1.09547
541.19 0 -5048.24
-20.0796 0 -162.858
-594.073 0 1807.37
-1.58315 0 0.976058
1236.87 0 -6776.94
2.97004 0 -37.1374
-3463.27 0 2966.75
-10.6243 0 36.1646
-17.5236 0 -11.6355
2.80611 0 -8.69484
-0.0370835 0 -4.07015
-24.6278 0 -0.0952931
1.76156 0 -1.04294
-0.232349 0 -0.197831
-1.78454 0 -3.2105
-18.3625 0 -47.1891
-6.84782 0 -5.31146
0.2 0 0
0.2 0 0.025
0.2 0 0.05
0.2 0 0.075
103.364 0 1.57453
-24.9714 0 22.0697
-113.79 0 53.6343
7.60549 0 -10.6622
18.4053 0 -9.45571
-0.999182 0 131.135
339.823 0 -7.69965
5269.59 0 -208.963
-7.2398 0 -3.9314
-66.1364 0 -81.726
158.178 0 -365.316
-30.7936 0 -295.034
-4.27027 0 -19.2861
-0.305932 0 -4.22665
-1.62134 0 -16.5601
-4.34149 0 2.27491
19.0082 0 1.83252
1.194 0 -4.83884
-236.686 0 86.4371
-0.433848 0 -4.22154
-1.67743 0 -4.30783
-4.83114 0 -4.51884
-1.92649 0 -1.69393
-24.4377 0 0.0227391
-0.26179 0 -1.55879
81.5669 0 85.0648
0.225 0 0
0.225 0 0.025
0.225 0 0.05
0.225 0 0.075
30.8388 0 22.2632
-1903.87 0 101.674
17141.2 0 -2879.49
20.8264 0 -9.17332
7.6456 0 -6.63425
-9.50317 0 -11.9424
97.9049 0 -212.973
39.6383 0 -46.3671
3.83263 0 -1.14875
74127.9 0 17127
-51.9183 0 36.4134
88.7218 0 169.535
67.8567 0 61.6253
61.2162 0 17.7012
40580.5 0 21662
-4.21554 0 -1.43017
2.08424 0 0.827312
29.4302 0 -31.6466
-1.70439 0 -1.78697
1.99273 0 -0.800179
7.828 0 -2.65603
-2.09992 0 -1.8934
-1.44089 0 -3.47788
-0.0622658 0 -1.00325
0.788055 0 4.38463
-1.47462 0 -2.90538
0.25 0 0
0.25 0 0.025
0.25 0 0.05
0.25 0 0.075
1275 0 1168.98
42.6904 0 -32.2802
-9.7612 0 -1.44865
2.40077 0 -0.613781
4.31025 0 -1.30884
31.288 0 -0.972386
8.93375 0 -6.3563
-29.747 0 -32.7473
-17.8753 0 -27.1078
-187.419 0 -71.5619
47.0224 0 -39.2674
-221.111 0 358.377
1236.22 0 -6804.89
33.6573 0 -59.0498
40579.3 0 21661.5
-4.24921 0 2.49182
-119.51 0 116.893
8.56423 0 -9.80515
3.49581 0 25.4852
2.12206 0 72.2895
6.38738 0 -5.64182
-5.49825 0 -4.7409
-0.716282 0 -2.98464
0.436134 0 -4.44322
1.08005 0 -5.24276
10.9985 0 -2.84193
0.275 0 0
0.275 0 0.025
0.275 0 0.05
0.275 0 0.075
44.6242 0 48.3654
-36.6133 0 73.1335
54.6666 0 12.5633
-7.06263 0 -3.6762
178.638 0 -227.314
-123.076 0 212.887
20.2277 0 -18.0493
3.29046 0 -9.10263
3.89232 0 -26.8738
-8.77904 0 11.8807
11.154 0 -22.5375
27.0839 0 -16.4913
-10.9138 0 15.4068
28.7479 0 -285.457
-4.22173 0 -4.19553
7.50773 0 4.22417
-5.43661 0 -1.69054
25.0766 0 -11.7989
190.412 0 -1.65166
16.4757 0 -8.31484
5.92815 0 223.568
-12.3375 0 -0.12762
-1.42668 0 -3.31611
-0.39162 0 -1.15674
-0.566071 0 -1.32
22.0214 0 -27.0071
0.3 0 0
0.3 0 0.025
0.3 0 0.05
0.3 0 0.075
265.444 0 -318.646
39.0242 0 3.98636
-16.9677 0 66.8946
-34.5994 0 7.37263
9029.44 0 -1324.08
-197.431 0 -1083.46
-26.4357 0 61.6017
-126.828 0 69.8306
6.18993 0 -3.21031
-1561.63 0 5661.73
-17.9902 0 9.23309
-1.00746 0 -20.2772
-0.318764 0 -0.711028
-29.2588 0 7748.86
37.5562 0 -10.148
14.8151 0 18.7738
-196.843 0 -32.5168
-93.6016 0 -56.4381
-117.39 0 115.387
-167.842 0 -72.5029
-10.9984 0 -0.197602
-1.52723 0 -2.61725
1.37233 0 39.7345
-12.2946 0 3.1998
-9941.71 0 -11945.6
-15.3631 0 -24.8888
0.325 0 0
0.325 0 0.025
0.325 0 0.05
0.325 0 0.075
60.8227 0 0.657794
31.4403 0 75.2844
2.44694 0 15.3566
-79.4543 0 -918.087
83.5754 0 -1848.06
57.4889 0 -42.7699
150.595 0 -155.524
16.3944 0 -26.1565
2.34637 0 -6.57272
18.5681 0 -22.9931
17143.8 0 -2878.81
119.982 0 99.5694
48.6332 0 30.9958
-28.7769 0 11.1234
-29.0882 0 2.65323
-1.99877 0 -4.23524
-3.73421 0 -16.9862
60.7757 0 -14.272
-70.3583 0 -2037.17
6.94219 0 -9.97558
2.43662 0 -1.51847
209.364 0 728.111
4.36128 0 136.296
12.7446 0 7.60127
343.65 0 695.734
-11.9341 0 12.5937
0.35 0 0
0.35 0 0.025
0.35 0 0.05
0.35 0 0.075
0.35 0 0.1
0.35 0 0.125
0.35 0 0.15
0.35 0 0.175
0.35 0 0.2
0.35 0 0.225
0.35 0 0.25
0.35 0 0.275
0.35 0 0.3
0.35 0 0.325
0.35 0 0.35
0.35 0 0.375
0.35 0 0.4
0.35 0 0.425
0.35 0 0.45
0.35 0 0.475
0.35 0 0.5
0.35 0 0.525
0.35 0 0.55
0.35 0 0.575
0.35 0 0.6
0.35 0 0.625
0.35 0 0.65
0.35 0 0.675
0.35 0 0.7
0.35 0 0.725
0.375 0 0
0.375 0 0.025
0.375 0 0.05
0.375 0 0.075
0.375 0 0.1
0.375 0 0.125
0.375 0 0.15
0.375 0 0.175
0.375 0 0.2
0.375 0 0.225
0.375 0 0.25
0.375 0 0.275
0.375 0 0.3
0.375 0 0.325
0.375 0 0.35
0.375 0 0.375
0.375 0 0.4
0.375 0 0.425
0.375 0 0.45
0.375 0 0.475
0.375 0 0.5
0.375 0 0.525
0.375 0 0.55
0.375 0 0.575
0.375 0 0.6
0.375 0 0.625
0.375 0 0.65
0.375 0 0.675
0.375 0 0.7
0.375 0 0.725
0.4 0 0
0.4 0 0.025
0.4 0 0.05
0.4 0 0.075
0.4 0 0.1
0.4 0 0.125
0.4 0 0.15
0.4 0 0.175
0.4 0 0.2
0.4 0 0.225
0.4 0 0.25
0.4 0 0.275
0.4 0 0.3
0.4 0 0.325
0.4 0 0.35
0.4 0 0.375
0.4 0 0.4
0.4 0 0.425
0.4 0 0.45
0.4 0 0.475
0.4 0 0.5
0.4 0 0.525
0.4 0 0.55
0.4 0 0.575
0.4 0 0.6
0.4 0 0.625
0.4 0 0.65
0.4 0 0.675
0.4 0 0.7
0.4 0 0.725
0.425 0 0
0.425 0 0.025
0.425 0 0.05
0.425 0 0.075
0.425 0 0.1
0.425 0 0.125
0.425 0 0.15
0.425 0 0.175
0.425 0 0.2
0.425 0 0.225
0.425 0 0.25
0.425 0 0.275
0.425 0 0.3
0.425 0 0.325
0.425 0 0.35
0.425 0 0.375
0.425 0 0.4
0.425 0 0.425
0.425 0 0.45
0.425 0 0.475
0.425 0 0.5
0.425 0 0.525
0.425 0 0.55
0.425 0 0.575
0.425 0 0.6
0.425 0 0.625
0.425 0 0.65
0.425 0 0.675
0.425 0 0.7
0.425 0 0.725
0.45 0 0
0.45 0 0.025
0.45 0 0.05
0.45 0 0.075
0.45 0 0.1
0.45 0 0.125
0.45 0 0.15
0.45 0 0.175
0.45 0 0.2
0.45 0 0.225
0.45 0 0.25
0.45 0 0.275
0.45 0 0.3
0.45 0 0.325
0.45 0 0.35
0.45 0 0.375
0.45 0 0.4
0.45 0 0.425
0.45 0 0.45
0.45 0 0.475
0.45 0 0.5
0.45 0 0.525
0.45 0 0.55
0.45 0 0.575
0.45 0 0.6
0.45 0 0.625
0.45 0 0.65
0.45 0 0.675
0.45 0 0.7
0.45 0 0.725
0.475 0 0
0.475 0 0.025
0.475 0 0.05
0.475 0 0.075
0.475 0 0.1
0.475 0 0.125
0.475 0 0.15
0.475 0 0.175
0.475 0 0.2
0.475 0 0.225
0.475 0 0.25
0.475 0 0.275
0.475 0 0.3
0.475 0 0.325
0.475 0 0.35
0.475 0 0.375
0.475 0 0.4
0.475 0 0.425
0.475 0 0.45
0.475 0 0.475
0.475 0 0.5
0.475 0 0.525
0.475 0 0.55
0.475 0 0.575
0.475 0 0.6
0.475 0 0.625
0.475 0 0.65
0.475 0 0.675
0.475 0 0.7
0.475 0 0.725
0.5 0 0
0.5 0 0.025
0.5 0 0.05
0.5 0 0.075
0.5 0 0.1
0.5 0 0.125
0.5 0 0.15
0.5 0 0.175
0.5 0 0.2
0.5 0 0.225
0.5 0 0.25
0.5 0 0.275
0.5 0 0.3
0.5 0 0.325
0.5 0 0.35
0.5 0 0.375
0.5 0 0.4
0.5 0 0.425
0.5 0 0.45
0.5 0 0.475
0.5 0 0.5
0.5 0 0.525
0.5 0 0.55
0.5 0 0.575
0.5 0 0.6
0.5 0 0.625
0.5 0 0.65
0.5 0 0.675
0.5 0 0.7
0.5 0 0.725
0.525 0 0
0.525 0 0.025
0.525 0 0.05
0.525 0 0.075
0.525 0 0.1
0.525 0 0.125
0.525 0 0.15
0.525 0 0.175
0.525 0 0.2
0.525 0 0.225
0.525 0 0.25
0.525 0 0.275
0.525 0 0.3
0.525 0 0.325
0.525 0 0.35
0.525 0 0.375
0.525 0 0.4
0.525 0 0.425
0.525 0 0.45
[...]
<PointData>
<DataArray NumberOfComponents='1' type='Int32' Name='ParticleType' format='ascii'>
2
2
2
2
2
2
2
2
2
2
2
2
2
2
2
2
2
2
2
2
2
2
2
2
2
2
2
2
2
2
2
2
2
2
2
2
2
2
2
2
2
2
2
2
2
2
2
2
2
2
2
2
2
2
2
2
2
2
2
2
2
2
1
1
1
1
1
1
1
1
1
1
1
1
1
1
1
1
1
1
1
1
1
1
1
1
1
1
1
1
2
2
1
1
1
1
1
1
1
1
1
1
1
1
1
1
1
1
1
1
1
1
1
1
1
1
1
1
1
1
2
2
1
1
0
0
0
0
0
0
0
0
0
0
0
0
0
0
0
0
0
0
0
0
0
0
0
0
0
0
2
2
1
1
0
0
0
0
0
0
0
0
0
0
0
0
0
0
0
0
0
0
0
0
0
0
0
0
0
0
2
2
1
1
0
0
0
0
0
0
0
0
0
0
0
0
0
0
0
0
0
0
0
0
0
0
0
0
0
0
2
2
1
1
0
0
0
0
0
0
0
0
0
0
0
0
0
0
0
0
0
0
0
0
0
0
0
0
0
0
2
2
1
1
0
0
0
0
0
0
0
0
0
0
0
0
0
0
0
0
0
0
0
0
0
0
0
0
0
0
2
2
1
1
0
0
0
0
0
0
0
0
0
0
0
0
0
0
0
0
0
0
0
0
0
0
0
0
0
0
2
2
1
1
0
0
0
0
0
0
0
0
0
0
0
0
0
0
0
0
0
0
0
0
0
0
0
0
0
0
2
2
1
1
0
0
0
0
0
0
0
0
0
0
0
0
0
0
0
0
0
0
0
0
0
0
0
0
0
0
2
2
1
1
0
0
0
0
0
0
0
0
0
0
0
0
0
0
0
0
0
0
0
0
0
0
0
0
0
0
2
2
1
1
0
0
0
0
0
0
0
0
0
0
0
0
0
0
0
0
0
0
0
0
0
0
0
0
0
0
2
2
1
1
-1
-1
-1
-1
-1
-1
-1
-1
-1
-1
-1
-1
-1
-1
-1
-1
-1
-1
-1
-1
-1
-1
-1
-1
-1
-1
2
2
1
1
-1
-1
-1
-1
-1
-1
-1
-1
-1
-1
-1
-1
-1
-1
-1
-1
-1
-1
-1
-1
-1
-1
-1
-1
-1
-1
2
2
1
1
-1
-1
-1
-1
-1
-1
-1
-1
-1
-1
-1
-1
-1
-1
-1
-1
-1
-1
-1
-1
-1
-1
-1
-1
-1
-1
2
2
1
1
-1
-1
-1
-1
-1
-1
-1
-1
-1
-1
-1
-1
-1
-1
-1
-1
-1
-1
-1
-1
-1
-1
-1
-1
-1
-1
2
2
1
1
-1
-1
-1
-1
-1
-1
-1
-1
-1
-1
-1
-1
-1
-1
-1
-1
-1
-1
-1
-1
-1
-1
-1
-1
-1
-1
2
2
1
1
-1
-1
-1
-1
-1
-1
-1
-1
-1
-1
-1
-1
-1
-1
-1
-1
-1
-1
-1
-1
-1
-1
-1
-1
-1
-1
2
2
1
1
-1
-1
-1
-1
-1
-1
-1
-1
-1
-1
-1
-1
-1
-1
-1
-1
-1
-1
-1
-1
-1
-1
-1
-1
-1
-1
2
2
1
1
-1
-1
-1
-1
-1
-1
-1
-1
-1
-1
-1
-1
-1
-1
-1
-1
-1
-1
-1
-1
-1
-1
-1
-1
-1
-1
2
2
1
1
-1
-1
-1
-1
-1
-1
-1
-1
-1
-1
-1
-1
-1
-1
-1
-1
-1
-1
-1
-1
-1
-1
-1
-1
-1
-1
2
2
1
1
-1
-1
-1
-1
-1
-1
-1
-1
-1
-1
-1
-1
-1
-1
-1
-1
-1
-1
-1
-1
-1
-1
-1
-1
-1
-1
2
2
1
1
-1
-1
-1
-1
-1
-1
-1
-1
-1
-1
-1
-1
-1
-1
-1
-1
-1
-1
-1
-1
-1
-1
-1
-1
-1
-1
2
2
1
1
-1
-1
-1
-1
-1
-1
-1
-1
-1
-1
-1
-1
-1
-1
-1
-1
-1
-1
-1
-1
-1
-1
-1
-1
-1
-1
2
2
1
1
-1
-1
-1
-1
-1
-1
-1
-1
-1
-1
-1
-1
-1
-1
-1
-1
-1
-1
-1
-1
-1
-1
-1
-1
-1
-1
2
2
1
1
-1
-1
-1
-1
-1
-1
-1
-1
-1
-1
-1
-1
-1
-1
-1
-1
-1
-1
-1
-1
-1
-1
-1
-1
-1
-1
2
2
1
1
-1
-1
-1
-1
-1
-1
-1
-1
-1
-1
-1
-1
-1
-1
-1
-1
-1
-1
-1
-1
-1
-1
-1
-1
-1
-1
2
2
1
1
-1
-1
-1
-1
-1
-1
-1
-1
-1
-1
-1
-1
-1
-1
-1
-1
-1
-1
-1
-1
-1
-1
-1
-1
-1
-1
2
2
1
1
-1
-1
-1
-1
-1
-1
-1
-1
-1
-1
-1
-1
-1
-1
-1
-1
-1
-1
-1
-1
-1
-1
-1
-1
-1
-1
2
2
1
1
-1
-1
-1
-1
-1
-1
-1
-1
-1
-1
-1
-1
-1
-1
-1
-1
-1
-1
-1
-1
-1
-1
-1
-1
-1
-1
2
2
1
1
-1
-1
-1
-1
-1
-1
-1
-1
-1
-1
-1
-1
-1
-1
-1
-1
-1
-1
-1
-1
-1
-1
-1
-1
-1
-1
2
2
1
1
-1
-1
-1
-1
-1
-1
-1
-1
-1
-1
-1
-1
-1
-1
-1
-1
-1
-1
-1
-1
-1
-1
-1
-1
-1
-1
2
2
1
1
-1
-1
-1
-1
-1
-1
-1
-1
-1
-1
-1
-1
-1
-1
-1
-1
-1
-1
-1
-1
-1
-1
-1
-1
-1
-1
2
2
1
1
-1
-1
-1
-1
-1
-1
-1
-1
-1
-1
-1
-1
-1
-1
-1
-1
-1
-1
-1
-1
-1
-1
-1
-1
-1
-1
2
2
1
1
-1
-1
-1
-1
-1
-1
-1
-1
-1
-1
-1
-1
-1
-1
-1
-1
-1
-1
-1
-1
-1
-1
-1
-1
-1
-1
2
2
1
1
-1
-1
-1
-1
-1
-1
-1
-1
-1
-1
-1
-1
-1
-1
-1
-1
-1
-1
-1
-1
-1
-1
-1
-1
-1
-1
2
2
1
1
-1
-1
-1
-1
-1
-1
-1
-1
-1
-1
-1
-1
-1
-1
-1
-1
-1
-1
-1
-1
-1
-1
-1
-1
-1
-1
2
2
1
1
-1
-1
-1
-1
-1
-1
-1
-1
-1
-1
-1
-1
-1
-1
-1
-1
-1
-1
-1
-1
-1
-1
-1
-1
-1
-1
2
2
1
1
-1
-1
-1
-1
-1
-1
-1
-1
-1
-1
-1
-1
-1
-1
-1
-1
-1
-1
-1
-1
-1
-1
-1
-1
-1
-1
2
2
1
1
-1
-1
-1
-1
-1
-1
-1
-1
-1
-1
-1
-1
-1
-1
-1
-1
-1
-1
-1
-1
-1
-1
-1
-1
-1
-1
2
2
1
1
-1
-1
-1
-1
-1
-1
-1
-1
-1
-1
-1
-1
-1
-1
-1
-1
-1
-1
-1
-1
-1
-1
-1
-1
-1
-1
2
2
1
1
-1
-1
-1
-1
-1
-1
-1
-1
-1
-1
-1
-1
-1
-1
-1
-1
-1
-1
-1
-1
-1
-1
-1
-1
-1
-1
2
2
1
1
-1
-1
-1
-1
-1
-1
-1
-1
-1
-1
-1
-1
-1
-1
-1
-1
-1
-1
-1
-1
-1
-1
-1
-1
-1
-1
2
2
1
1
-1
-1
-1
-1
-1
-1
-1
-1
-1
-1
-1
-1
-1
-1
-1
-1
-1
-1
-1
-1
-1
-1
-1
-1
-1
-1
2
2
1
1
-1
-1
-1
-1
-1
-1
-1
-1
-1
-1
-1
-1
-1
-1
-1
-1
-1
-1
-1
-1
-1
-1
-1
-1
-1
-1
2
2
1
1
-1
-1
-1
-1
-1
-1
-1
-1
-1
-1
-1
-1
-1
-1
-1
-1
-1
-1
-1
-1
-1
-1
-1
-1
-1
-1
2
2
1
1
-1
-1
-1
-1
-1
-1
-1
-1
-1
-1
-1
-1
-1
-1
-1
-1
-1
-1
-1
-1
-1
-1
-1
-1
-1
-1
2
2
1
1
-1
-1
-1
-1
-1
-1
-1
-1
-1
-1
-1
-1
-1
-1
-1
-1
-1
-1
-1
-1
-1
-1
-1
-1
-1
-1
2
2
1
1
-1
-1
-1
-1
-1
-1
-1
-1
-1
-1
-1
-1
-1
-1
-1
-1
-1
-1
-1
-1
-1
-1
-1
-1
-1
-1
2
2
1
1
-1
-1
-1
-1
-1
-1
-1
-1
-1
-1
-1
-1
-1
-1
-1
-1
-1
-1
-1
-1
-1
-1
-1
-1
-1
-1
2
2
1
1
-1
-1
-1
-1
-1
-1
-1
-1
-1
-1
-1
-1
-1
-1
-1
-1
-1
-1
-1
-1
-1
-1
-1
-1
-1
-1
2
2
1
1
-1
-1
-1
-1
-1
-1
-1
-1
-1
-1
-1
-1
-1
-1
-1
-1
-1
-1
-1
-1
-1
-1
-1
-1
-1
-1
2
2
1
1
-1
-1
-1
-1
-1
-1
-1
-1
-1
-1
-1
-1
-1
-1
-1
-1
-1
-1
-1
-1
-1
-1
-1
-1
-1
-1
2
2
1
1
-1
-1
-1
-1
-1
-1
-1
-1
-1
-1
-1
-1
-1
-1
-1
-1
-1
-1
-1
-1
-1
-1
-1
-1
-1
-1
2
2
1
1
-1
-1
-1
-1
-1
-1
-1
-1
-1
-1
-1
-1
-1
-1
-1
-1
-1
-1
-1
-1
-1
-1
-1
-1
-1
-1
2
2
1
1
-1
-1
-1
-1
-1
-1
-1
-1
-1
-1
-1
-1
-1
-1
-1
-1
-1
-1
-1
-1
-1
-1
-1
-1
-1
-1
2
2
1
1
-1
-1
-1
-1
-1
-1
-1
-1
-1
-1
-1
-1
-1
-1
-1
-1
-1
-1
-1
-1
-1
-1
-1
-1
-1
-1
2
2
1
1
-1
-1
-1
-1
-1
-1
-1
-1
-1
-1
-1
-1
-1
-1
-1
-1
-1
-1
-1
-1
-1
-1
-1
-1
-1
-1
2
2
1
1
-1
-1
-1
-1
-1
-1
-1
-1
-1
-1
-1
-1
-1
-1
-1
-1
-1
-1
-1
-1
-1
-1
-1
-1
-1
-1
2
2
1
1
-1
-1
-1
-1
-1
-1
-1
-1
-1
-1
-1
-1
-1
-1
-1
-1
-1
-1
-1
-1
-1
-1
-1
-1
-1
-1
2
2
1
1
-1
-1
-1
-1
-1
-1
-1
-1
-1
-1
-1
-1
-1
-1
-1
-1
-1
-1
-1
-1
-1
-1
-1
-1
-1
-1
2
2
1
1
-1
-1
-1
-1
-1
-1
-1
-1
-1
-1
-1
-1
-1
-1
-1
-1
-1
-1
-1
-1
-1
-1
-1
-1
-1
-1
2
2
1
1
-1
-1
-1
-1
-1
-1
-1
-1
-1
-1
-1
-1
-1
-1
-1
-1
-1
-1
-1
-1
-1
-1
-1
-1
-1
-1
2
2
1
1
-1
-1
-1
-1
-1
-1
-1
-1
-1
-1
-1
-1
-1
-1
-1
-1
-1
-1
-1
-1
-1
-1
-1
-1
-1
-1
2
2
1
1
1
1
1
1
1
1
1
1
1
1
1
1
1
1
1
1
1
1
1
1
1
1
1
1
1
1
2
2
1
1
1
1
1
1
1
1
1
1
1
1
1
1
1
1
1
1
1
1
1
1
1
1
1
1
1
1
2
2
2
2
2
2
2
2
2
2
2
2
2
2
2
2
2
2
2
2
2
2
2
2
2
2
2
2
2
2
2
2
2
2
2
2
2
2
2
2
2
2
2
2
2
2
2
2
2
2
2
2
2
2
2
2
2
2
2
2
</DataArray>
<DataArray NumberOfComponents='1' type='Float32' Name='Velocity' format='ascii'>
0
0
0
0
0
0
0
0
0
0
0
0
0
0
0
0
0
0
0
0
0
0
0
0
0
0
0
0
0
0
0
0
0
0
0
0
0
0
0
0
0
0
0
0
0
0
0
0
0
0
0
0
0
0
0
0
0
0
0
0
0
0
0
0
0
0
0
0
0
0
0
0
0
0
0
0
0
0
0
0
0
0
0
0
0
0
0
0
0
0
0
0
0
0
0
0
0
0
0
0
0
0
0
0
0
0
0
0
0
0
0
0
0
0
0
0
0
0
0
0
0
0
0
0
8273.22
191.583
86.7524
181.983
10.8584
14.0391
21.6527
236.966
612.527
367.64
134.883
4.72224
968.79
6.60415
15.008
14.0898
131.798
94.2117
278.074
9.0273
43.7458
28.1324
17.4459
16.6877
19.1561
18.2435
0
0
0
0
156.916
59.38
133.703
176.559
9.99223
12.8308
30.8246
86.991
86.5791
170.148
16.5927
100.731
156.016
18.6746
13.4853
39.5863
49.0601
4722.64
105.631
3.3767
156.317
87.0504
16.3013
14.7315
3.31866
1392.27
0
0
0
0
40.2528
163.365
25.3185
588.81
53.99
8.82333
99.7767
17.7352
72.1151
116.822
494.953
1192.32
5.13689
140.907
20.7378
5443.68
31.1742
307.816
9.761
6.26293
14.3602
7.06724
19.6878
15.6134
20.6538
586.212
0
0
0
0
55.5364
5988.85
51.0822
46.8439
397.017
64.8345
263.146
2002.55
134.907
13761.9
353.695
4559.13
7.08205
18669.9
85.3731
10579.1
87.0919
51.2392
26.1005
13.458
236.301
6.44164
2.10739
20.0962
147.305
20.5366
0
0
0
0
183.305
53.8223
333.306
32.5272
51.4394
248.217
864.176
13216.9
19.5617
303.658
994.285
637.525
49.3496
13.8482
39.3717
15.8721
70.0198
19.2912
668.191
14.1004
15.2766
27.3132
8.65982
234.572
6.90525
307.801
0
0
0
0
63.7419
3443.87
41578
56.9069
24.1863
31.2205
525.579
139.899
12.4678
156867
151.057
450.768
256.369
184.201
178297
12.9481
5.70002
108.802
7.75163
7.93345
21.7839
9.75115
15.6915
3.05186
102.442
17.0669
0
0
0
0
3463.84
99.784
19.5571
5.14676
9.32741
67.5214
24.7357
91.5326
67.91
414.98
166.307
1070.15
18744.1
156.083
178292
15.9664
401.921
34.7589
269.309
977.085
35.5706
30.5417
11.9124
16.3343
21.1063
36.6036
0
0
0
0
118.152
153.302
139.362
16.7306
640.896
504.083
56.037
21.7073
57.1858
28.2475
54.3775
72.1091
38.8243
716.611
19.0261
17.9428
17.0097
69.6119
523.249
163.544
506.158
39.308
19.3094
5.47318
7.28455
72.0314
0
0
0
0
833.22
77.1176
119.836
73.3257
21780
2734.94
145.728
364.037
15.4197
16002.7
40.3079
51.1489
0.855833
17028.4
98.4718
48.9023
403.667
276.382
395.812
461.382
35.0669
12.8214
722.816
29.7982
28520.6
61.464
0
0
0
0
132.57
133.469
28.6201
1666.19
3342
161.183
480.02
71.0449
18.0869
67.7505
41583.8
381.445
139.597
73.3201
113.948
12.4166
43.8151
126.461
4095.65
28.2698
10.9125
1470.74
382.419
31.0714
1302.47
21.291
0
0
0
0
0
0
0
0
0
0
0
0
0
0
0
0
0
0
0
0
0
0
0
0
0
0
0
0
0
0
0
0
0
0
0
0
0
0
0
0
0
0
0
0
0
0
0
0
0
0
0
0
0
0
0
0
0
0
0
0
0
0
0
0
0
0
0
0
0
0
0
0
0
0
0
0
0
0
0
0
0
0
0
0
0
0
0
0
0
0
0
0
0
0
0
0
0
0
0
0
0
0
0
0
0
0
0
0
0
0
0
0
0
0
0
0
0
0
0
0
0
0
0
0
0
0
0
0
0
0
0
0
0
0
0
0
0
0
0
0
0
0
0
0
0
0
0
0
0
0
0
0
0
0
0
0
0
0
0
0
0
0
0
0
0
0
0
0
0
0
0
0
0
0
0
0
0
0
0
0
0
0
0
0
0
0
0
0
0
0
0
0
0
0
0
0
0
0
0
0
0
0
0
0
0
0
0
0
0
0
0
0
0
0
0
0
0
0
0
0
0
0
0
0
0
0
0
0
0
0
0
0
0
0
0
0
0
0
0
0
0
0
0
0
0
0
0
0
0
0
0
0
0
0
0
0
0
0
0
0
0
0
0
0
0
0
0
0
0
0
0
0
0
0
0
0
0
0
0
0
0
0
0
0
0
0
0
0
0
0
0
0
0
0
0
0
0
0
0
0
0
0
0
0
0
0
0
0
0
0
0
0
0
0
0
0
0
0
0
0
0
0
0
0
0
0
0
0
0
0
0
0
0
0
0
0
0
0
0
0
0
0
0
0
0
0
0
0
0
0
0
0
0
0
0
0
0
0
0
0
0
0
0
0
0
0
0
0
0
0
0
0
0
0
0
0
0
0
0
0
0
0
0
0
0
0
0
0
0
0
0
0
0
0
0
0
0
0
0
0
0
0
0
0
0
0
0
0
0
0
0
0
0
0
0
0
0
0
0
0
0
0
0
0
0
0
0
0
0
0
0
0
0
0
0
0
0
0
0
0
0
0
0
0
0
0
0
0
0
0
0
0
0
0
0
0
0
0
0
0
0
0
0
0
0
0
0
0
0
0
0
0
0
0
0
0
0
0
0
0
0
0
0
0
0
0
0
0
0
0
0
0
0
0
0
0
0
0
0
0
0
0
0
0
0
0
0
0
0
0
0
0
0
0
0
0
0
0
0
0
0
0
0
0
0
0
0
0
0
0
0
0
0
0
0
0
0
0
0
0
0
0
0
0
0
0
0
0
0
0
0
0
0
0
0
0
0
0
0
0
0
0
0
0
0
0
0
0
0
0
0
0
0
0
0
0
0
0
0
0
0
0
0
0
0
0
0
0
0
0
0
0
0
0
0
0
0
0
0
0
0
0
0
0
0
0
0
0
0
0
0
0
0
0
0
0
0
0
0
0
0
0
0
0
0
0
0
0
0
0
0
0
0
0
0
0
0
0
0
0
0
0
0
0
0
0
0
0
0
0
0
0
0
0
0
0
0
0
0
0
0
0
0
0
0
0
0
0
0
0
0
0
0
0
0
0
0
0
0
0
0
0
0
0
0
0
0
0
0
0
0
0
0
0
0
0
0
0
0
0
0
0
0
0
0
0
0
0
0
0
0
0
0
0
0
0
0
0
0
0
0
0
0
0
0
0
0
0
0
0
0
0
0
0
0
0
0
0
0
0
0
0
0
0
0
0
0
0
0
0
0
0
0
0
0
0
0
0
0
0
0
0
0
0
0
0
0
0
0
0
0
0
0
0
0
0
0
0
0
0
0
0
0
0
0
0
0
0
0
0
0
0
0
0
0
0
0
0
0
0
0
0
0
0
0
0
0
0
0
0
0
0
0
0
0
0
0
0
0
0
0
0
0
0
0
0
0
0
0
0
0
0
0
0
0
0
0
0
0
0
0
0
0
0
0
0
0
0
0
0
0
0
0
0
0
0
0
0
0
0
0
0
0
0
0
0
0
0
0
0
0
0
0
0
0
0
0
0
0
0
0
0
0
0
0
0
0
0
0
0
0
0
0
0
0
0
0
0
0
0
0
0
0
0
0
0
0
0
0
0
0
0
0
0
0
0
0
0
0
0
0
0
0
0
0
0
0
0
0
0
0
0
0
0
0
0
0
0
0
0
0
0
0
0
0
0
0
0
0
0
0
0
0
0
0
0
0
0
0
0
0
0
0
0
0
0
0
0
0
0
0
0
0
0
0
0
0
0
0
0
0
0
0
0
0
0
0
0
0
0
0
0
0
0
0
0
0
0
0
0
0
0
0
0
0
0
0
0
0
0
0
0
0
0
0
0
0
0
0
0
0
0
0
0
0
0
0
0
0
0
0
0
0
0
0
0
0
0
0
0
0
0
0
0
0
0
0
0
0
0
0
0
0
0
0
0
0
0
0
0
0
0
0
0
0
0
0
0
0
0
0
0
0
0
0
0
0
0
0
0
0
0
0
0
0
0
0
0
0
0
0
0
0
0
0
0
0
0
0
0
0
0
0
0
0
0
0
0
0
0
0
0
0
0
0
0
0
0
0
0
0
0
0
0
0
0
0
0
0
0
0
0
0
0
0
0
0
0
0
0
0
0
0
0
0
0
0
0
0
0
0
0
0
0
0
0
0
0
0
0
0
0
0
0
0
0
0
0
0
0
0
0
0
0
0
0
0
0
0
0
0
0
0
0
0
0
0
0
0
0
0
0
0
0
0
0
0
0
0
0
0
0
0
0
0
0
0
0
0
0
0
0
0
0
0
0
0
0
0
0
0
0
0
0
0
0
0
0
0
0
0
0
0
0
0
0
0
0
0
0
0
0
0
0
0
0
0
0
0
0
0
0
0
0
0
0
0
0
0
0
0
0
0
0
0
0
0
0
0
0
0
0
0
0
0
0
0
0
0
0
0
0
0
0
0
0
0
0
0
0
0
0
0
0
0
0
0
0
0
0
0
0
0
0
0
0
0
0
0
0
0
0
0
0
0
0
0
0
0
0
0
0
0
0
0
0
0
0
0
0
0
0
0
0
0
0
0
0
0
0
0
0
0
0
0
0
0
0
0
0
0
0
0
0
0
0
0
0
0
0
0
0
0
0
0
0
0
0
0
0
0
0
0
0
0
0
0
0
0
0
0
0
0
0
0
0
0
0
0
0
0
0
0
0
0
0
0
0
0
0
0
0
0
0
0
0
0
0
0
0
0
0
0
0
0
0
0
0
0
0
0
0
0
0
0
0
0
0
0
0
0
0
0
0
0
0
0
0
0
0
0
0
0
0
0
0
0
0
0
0
0
0
0
0
0
0
0
0
0
0
0
0
0
0
0
0
0
0
0
0
0
0
0
0
0
0
0
0
0
0
0
0
0
0
0
0
0
0
0
0
0
0
0
0
0
0
0
0
0
0
0
0
0
0
0
0
0
0
0
0
0
0
0
0
0
0
0
0
0
0
0
0
0
0
0
0
0
0
0
0
0
0
0
0
0
0
0
0
0
0
0
0
0
0
0
0
0
0
0
0
0
0
0
0
0
0
0
0
0
0
0
0
0
0
0
0
0
0
0
0
0
0
0
0
0
0
0
0
0
0
0
0
0
0
0
0
0
0
0
0
0
0
0
0
0
0
0
0
0
0
0
0
0
0
0
0
0
0
0
0
0
0
0
0
0
0
0
0
0
0
0
0
0
0
0
0
0
0
0
0
0
0
0
0
0
0
0
0
0
0
0
0
0
0
0
0
0
0
0
0
0
0
0
0
0
0
0
0
0
0
0
0
0
0
0
0
0
0
0
0
0
0
0
0
0
0
0
0
0
0
</DataArray>
<DataArray NumberOfComponents='1' type='Float32' Name='pressure' format='ascii'>
0
0
0
0
0
0
0
0
0
0
0
0
0
0
0
0
0
0
0
0
0
0
0
0
0
0
0
0
0
0
0
0
0
0
0
0
0
0
0
0
0
0
0
0
0
0
0
0
0
0
0
0
0
0
0
0
0
0
0
0
0
0
0
0
0
0
0
0
0
0
0
0
0
0
0
0
0
0
0
0
0
0
0
0
0
0
0
0
0
0
0
0
0
0
0
0
0
0
0
0
0
0
0
0
0
0
0
0
0
0
0
0
0
0
0
0
0
0
0
26932.3
0
0
0
0
0
0
0
0
0
0
0
0
0
0
0
0
0
0
0
0
0
0
0
0
0
0
0
0
0
0
0
0
0
0
0
0
0
0
0
0
0
0
0
0
0
0
0
0
0
0
0
0
0
0
0
0
0
0
0
0
0
0
0
0
0
0
0
0
0
0
0
0
0
0
0
0
0
0
0
0
0
0
0
0
0
0
0
0
0
0
0
0
0
0
0
0
0
0
0
0
0
0
0
0
0
0
0
0
0
0
0
0
0
0
0
0
0
0
0
0
0
0
0
0
0
0
0
0
0
0
0
0
0
0
0
0
0
0
0
0
0
0
0
0
0
0
0
0
0
0
0
0
0
0
0
0
0
0
0
0
0
0
0
0
0
0
0
0
0
0
0
0
0
0
0
0
0
0
0
0
0
0
0
0
0
0
0
0
0
0
0
0
0
0
0
0
0
0
0
0
0
0
0
0
0
0
0
0
0
0
0
0
0
0
0
0
0
0
0
0
0
0
0
0
0
0
0
0
0
0
0
0
0
0
0
0
0
0
0
0
0
0
0
0
0
0
0
0
0
0
0
0
0
0
0
0
0
0
0
0
0
0
0
0
0
0
0
0
0
0
0
0
0
0
0
0
0
0
0
0
0
0
0
0
0
0
0
0
0
0
0
0
0
0
0
0
0
0
0
0
0
0
0
0
0
0
0
0
0
0
0
0
0
0
0
0
0
0
0
0
0
0
0
0
0
0
0
0
0
0
0
0
0
0
0
0
0
0
0
0
0
0
0
0
0
0
0
0
0
0
0
0
0
0
0
0
0
0
0
0
0
0
0
0
0
0
0
0
0
0
0
0
0
0
0
0
0
0
0
0
0
0
0
0
0
0
0
0
0
0
0
0
0
0
0
0
0
0
0
0
0
0
0
0
0
0
0
0
0
0
0
0
0
0
0
0
0
0
0
0
0
0
0
0
0
0
0
0
0
0
0
0
0
0
0
0
0
0
0
0
0
0
0
0
0
0
0
0
0
0
0
0
0
0
0
0
0
0
0
0
0
0
0
0
0
0
0
0
0
0
0
0
0
0
0
0
0
0
0
0
0
0
0
0
0
0
0
0
0
0
0
0
0
0
0
0
0
0
0
0
0
0
0
0
0
0
0
0
0
0
0
0
0
0
0
0
0
0
0
0
0
0
0
0
0
0
0
0
0
0
0
0
0
0
0
0
0
0
0
0
0
0
0
0
0
0
0
0
0
0
0
0
0
0
0
0
0
0
0
0
0
0
0
0
0
0
0
0
0
0
0
0
0
0
0
0
0
0
0
0
0
0
0
0
0
0
0
0
0
0
0
0
0
0
0
0
0
0
0
0
0
0
0
0
0
0
0
0
0
0
0
0
0
0
0
0
0
0
0
0
0
0
0
0
0
0
0
0
0
0
0
0
0
0
0
0
0
0
0
0
0
0
0
0
0
0
0
0
0
0
0
0
0
0
0
0
0
0
0
0
0
0
0
0
0
0
0
0
0
0
0
0
0
0
0
0
0
0
0
0
0
0
0
0
0
0
0
0
0
0
0
0
0
0
0
0
0
0
0
0
0
0
0
0
0
0
0
0
0
0
0
0
0
0
0
0
0
0
0
0
0
0
0
0
0
0
0
0
0
0
0
0
0
0
0
0
0
0
0
0
0
0
0
0
0
0
0
0
0
0
0
0
0
0
0
0
0
0
0
0
0
0
0
0
0
0
0
0
0
0
0
0
0
0
0
0
0
0
0
0
0
0
0
0
0
0
0
0
0
0
0
0
0
0
0
0
0
0
0
0
0
0
0
0
0
0
0
0
0
0
0
0
0
0
0
0
0
0
0
0
0
0
0
0
0
0
0
0
0
0
0
0
0
0
0
0
0
0
0
0
0
0
0
0
0
0
0
0
0
0
0
0
0
0
0
0
0
0
0
0
0
0
0
0
0
0
0
0
0
0
0
0
0
0
0
0
0
0
0
0
0
0
0
0
0
0
0
0
0
0
0
0
0
0
0
0
0
0
0
0
0
0
0
0
0
0
0
0
0
0
0
0
0
0
0
0
0
0
0
0
0
0
0
0
0
0
0
0
0
0
0
0
0
0
0
0
0
0
0
0
0
0
0
0
0
0
0
0
0
0
0
0
0
0
0
0
0
0
0
0
0
0
0
0
0
0
0
0
0
0
0
0
0
0
0
0
0
0
0
0
0
0
0
0
0
0
0
0
0
0
0
0
0
0
0
0
0
0
0
0
0
0
0
0
0
0
0
0
0
0
0
0
0
0
0
0
0
0
0
0
0
0
0
0
0
0
0
0
0
0
0
0
0
0
0
0
0
0
0
0
0
0
0
0
0
0
0
0
0
0
0
0
0
0
0
0
0
0
0
0
0
0
0
0
0
0
0
0
0
0
0
0
0
0
0
0
0
0
0
0
0
0
0
0
0
0
0
0
0
0
0
0
0
0
0
0
0
0
0
0
0
0
0
0
0
0
0
0
0
0
0
0
0
0
0
0
0
0
0
0
0
0
0
0
0
0
0
0
0
0
0
0
0
0
0
0
0
0
0
0
0
0
0
0
0
0
0
0
0
0
0
0
0
0
0
0
0
0
0
0
0
0
0
0
0
0
0
0
0
0
0
0
0
0
0
0
0
0
0
0
0
0
0
0
0
0
0
0
0
0
0
0
0
0
0
0
0
0
0
0
0
0
0
0
0
0
0
0
0
0
0
0
0
0
0
0
0
0
0
0
0
0
0
0
0
0
0
0
0
0
0
0
0
0
0
0
0
0
0
0
0
0
0
0
0
0
0
0
0
0
0
0
0
0
0
0
0
0
0
0
0
0
0
0
0
0
0
0
0
0
0
0
0
0
0
0
0
0
0
0
0
0
0
0
0
0
0
0
0
0
0
0
0
0
0
0
0
0
0
0
0
0
0
0
0
0
0
0
0
0
0
0
0
0
0
0
0
0
0
0
0
0
0
0
0
0
0
0
0
0
0
0
0
0
0
0
0
0
0
0
0
0
0
0
0
0
0
0
0
0
0
0
0
0
0
0
0
0
0
0
0
0
0
0
0
0
0
0
0
0
0
0
0
0
0
0
0
0
0
0
0
0
0
0
0
0
0
0
0
0
0
0
0
0
0
0
0
0
0
0
0
0
0
0
0
0
0
0
0
0
0
0
0
0
0
0
0
0
0
0
0
0
0
0
0
0
0
0
0
0
0
0
0
0
0
0
0
0
0
0
0
0
0
0
0
0
0
0
0
0
0
0
0
0
0
0
0
0
0
0
0
0
0
0
0
0
0
0
0
0
0
0
0
0
0
0
0
0
0
0
0
0
0
0
0
0
0
0
0
0
0
0
0
0
0
0
0
0
0
0
0
0
0
0
0
0
0
0
0
0
0
0
0
0
0
0
0
0
0
0
0
0
0
0
0
0
0
0
0
0
0
0
0
0
0
0
0
0
0
0
0
0
0
0
0
0
0
0
0
0
0
0
0
0
0
0
0
0
0
0
0
0
0
0
0
0
0
0
0
0
0
0
0
0
0
0
0
0
0
0
0
0
0
0
0
0
0
0
0
0
0
0
0
0
0
0
0
0
0
0
0
0
0
0
0
0
0
0
0
0
0
0
0
0
0
0
0
0
0
0
0
0
0
0
0
0
0
0
0
0
0
0
0
0
0
0
0
0
0
0
0
0
0
0
0
0
0
0
0
0
0
0
0
0
0
0
0
0
0
0
0
0
0
0
0
0
0
0
0
0
0
0
0
0
0
0
0
0
0
0
0
0
0
0
0
0
0
0
0
0
0
0
0
0
0
0
0
0
0
0
0
0
0
0
0
0
0
0
0
0
0
0
0
0
0
0
0
0
0
0
0
0
0
0
0
0
0
0
0
0
0
0
0
0
0
0
0
0
0
0
0
0
0
0
0
0
0
0
0
0
0
0
0
0
0
0
0
0
0
0
0
0
0
0
0
0
0
0
0
0
0
0
0
0
0
0
0
0
0
0
0
0
0
0
0
0
0
0
0
0
0
0
0
0
0
0
0
0
0
0
0
0
0
0
0
0
0
0
0
0
0
0
0
0
0
0
0
0
0
0
0
0
0
0
0
0
0
0
0
0
0
0
0
0
0
0
0
0
0
0
0
0
0
0
0
0
0
0
0
0
0
0
0
0
0
0
0
0
0
0
0
0
0
0
0
0
0
0
0
0
0
0
0
0
0
0
0
0
0
0
0
0
0
0
0
0
0
0
0
26932.3
0
0
0
0
0
0
0
0
0
0
0
0
0
0
0
0
0
0
0
0
0
0
0
0
0
0
0
0
0
0
0
0
0
0
0
0
0
0
0
0
0
0
0
0
0
0
0
0
0
0
0
0
0
0
0
0
0
0
0
0
0
0
0
0
0
0
0
0
0
0
0
0
0
0
0
0
0
0
0
0
0
0
0
0
0
0
0
0
0
0
</DataArray>
</PointData>
<Cells>
<DataArray type='Int32' Name='connectivity' format='ascii'>
0
1
2
3
4
5
6
7
8
9
10
11
12
13
14
15
16
17
18
19
20
21
22
23
24
25
26
27
28
29
30
31
32
33
34
35
36
37
38
39
40
41
42
43
44
45
46
47
48
49
50
51
52
53
54
55
56
57
58
59
60
61
62
63
64
65
66
67
68
69
70
71
72
73
74
75
76
77
78
79
80
81
82
83
84
85
86
87
88
89
90
91
92
93
94
95
96
97
98
99
100
101
102
103
104
105
106
107
108
109
110
111
112
113
114
115
116
117
118
119
120
121
122
123
124
125
126
127
128
129
130
131
132
133
134
135
136
137
138
139
140
141
142
143
144
145
146
147
148
149
150
151
152
153
154
155
156
157
158
159
160
161
162
163
164
165
166
167
168
169
170
171
172
173
174
175
176
177
178
179
180
181
182
183
184
185
186
187
188
189
190
191
192
193
194
195
196
197
198
199
200
201
202
203
204
205
206
207
208
209
210
211
212
213
214
215
216
217
218
219
220
221
222
223
224
225
226
227
228
229
230
231
232
233
234
235
236
237
238
239
240
241
242
243
244
245
246
247
248
249
250
251
252
253
254
255
256
257
258
259
260
261
262
263
264
265
266
267
268
269
270
271
272
273
274
275
276
277
278
279
280
281
282
283
284
285
286
287
288
289
290
291
292
293
294
295
296
297
298
299
300
301
302
303
304
305
306
307
308
309
310
311
312
313
314
315
316
317
318
319
320
321
322
323
324
325
326
327
328
329
330
331
332
333
334
335
336
337
338
339
340
341
342
343
344
345
346
347
348
349
350
351
352
353
354
355
356
357
358
359
360
361
362
363
364
365
366
367
368
369
370
371
372
373
374
375
376
377
378
379
380
381
382
383
384
385
386
387
388
389
390
391
392
393
394
395
396
397
398
399
400
401
402
403
404
405
406
407
408
409
410
411
412
413
414
415
416
417
418
419
420
421
422
423
424
425
426
427
428
429
430
431
432
433
434
435
436
437
438
439
440
441
442
443
444
445
446
447
448
449
450
451
452
453
454
455
456
457
458
459
460
461
462
463
464
465
466
467
468
469
470
471
472
473
474
475
476
477
478
479
480
481
482
483
484
485
486
487
488
489
490
491
492
493
494
495
496
497
498
499
500
501
502
503
504
505
506
507
508
509
510
511
512
513
514
515
516
517
518
519
520
521
522
523
524
525
526
527
528
529
530
531
532
533
534
535
536
537
538
539
540
541
542
543
544
545
546
547
548
549
550
551
552
553
554
555
556
557
558
559
560
561
562
563
564
565
566
567
568
569
570
571
572
573
574
575
576
577
578
579
580
581
582
583
584
585
586
587
588
589
590
591
592
593
594
595
596
597
598
599
600
601
602
603
604
605
606
607
608
609
610
611
612
613
614
615
616
617
618
619
620
621
622
623
624
625
626
627
628
629
630
631
632
633
634
635
636
637
638
639
640
641
642
643
644
645
646
647
648
649
650
651
652
653
654
655
656
657
658
659
660
661
662
663
664
665
666
667
668
669
670
671
672
673
674
675
676
677
678
679
680
681
682
683
684
685
686
687
688
689
690
691
692
693
694
695
696
697
698
699
700
701
702
703
704
705
706
707
708
709
710
711
712
713
714
715
716
717
718
719
720
721
722
723
724
725
726
727
728
729
730
731
732
733
734
735
736
737
738
739
740
741
742
743
744
745
746
747
748
749
750
751
752
753
754
755
756
757
758
759
760
761
762
763
764
765
766
767
768
769
770
771
772
773
774
775
776
777
778
779
780
781
782
783
784
785
786
787
788
789
790
791
792
793
794
795
796
797
798
799
800
801
802
803
804
805
806
807
808
809
810
811
812
813
814
815
816
817
818
819
820
821
822
823
824
825
826
827
828
829
830
831
832
833
834
835
836
837
838
839
840
841
842
843
844
845
846
847
848
849
850
851
852
853
854
855
856
857
858
859
860
861
862
863
864
865
866
867
868
869
870
871
872
873
874
875
876
877
878
879
880
881
882
883
884
885
886
887
888
889
890
891
892
893
894
895
896
897
898
899
900
901
902
903
904
905
906
907
908
909
910
911
912
913
914
915
916
917
918
919
920
921
922
923
924
925
926
927
928
929
930
931
932
933
934
935
936
937
938
939
940
941
942
943
944
945
946
947
948
949
950
951
952
953
954
955
956
957
958
959
960
961
962
963
964
965
966
967
968
969
970
971
972
973
974
975
976
977
978
979
980
981
982
983
984
985
986
987
988
989
990
991
992
993
994
995
996
997
998
999
1000
1001
1002
1003
1004
1005
1006
1007
1008
1009
1010
1011
1012
1013
1014
1015
1016
1017
1018
1019
1020
1021
1022
1023
1024
1025
1026
1027
1028
1029
1030
1031
1032
1033
1034
1035
1036
1037
1038
1039
1040
1041
1042
1043
1044
1045
1046
1047