<?xml version='1.0' encoding='UTF-8'?>
<VTKFile xmlns='VTK' byte_order='LittleEndian' version='0.1' type='UnstructuredGrid'>
<UnstructuredGrid>
<Piece NumberOfCells='2100' NumberOfPoints='2100'>
<Points>
<DataArray NumberOfComponents='3' type='Float32' Name='Position' format='ascii'>
0 0 0
0 0 0.025
0 0 0.05
0 0 0.075
0 0 0.1
0 0 0.125
0 0 0.15
0 0 0.175
0 0 0.2
0 0 0.225
0 0 0.25
0 0 0.275
0 0 0.3
0 0 0.325
0 0 0.35
0 0 0.375
0 0 0.4
0 0 0.425
0 0 0.45
0 0 0.475
0 0 0.5
0 0 0.525
0 0 0.55
0 0 0.575
0 0 0.6
0 0 0.625
0 0 0.65
0 0 0.675
0 0 0.7
0 0 0.725
0.025 0 0
0.025 0 0.025
0.025 0 0.05
0.025 0 0.075
0.025 0 0.1
0.025 0 0.125
0.025 0 0.15
0.025 0 0.175
0.025 0 0.2
0.025 0 0.225
0.025 0 0.25
0.025 0 0.275
0.025 0 0.3
0.025 0 0.325
0.025 0 0.35
0.025 0 0.375
0.025 0 0.4
0.025 0 0.425
0.025 0 0.45
0.025 0 0.475
0.025 0 0.5
0.025 0 0.525
0.025 0 0.55
0.025 0 0.575
0.025 0 0.6
0.025 0 0.625
0.025 0 0.65
0.025 0 0.675
0.025 0 0.7
0.025 0 0.725
0.05 0 0
0.05 0 0.025
0.05 0 0.05
0.05 0 0.075
0.05 0 0.1
0.05 0 0.125
0.05 0 0.15
0.05 0 0.175
0.05 0 0.2
0.05 0 0.225
0.05 0 0.25
0.05 0 0.275
0.05 0 0.3
0.05 0 0.325
0.05 0 0.35
0.05 0 0.375
0.05 0 0.4
0.05 0 0.425
0.05 0 0.45
0.05 0 0.475
0.05 0 0.5
0.05 0 0.525
0.05 0 0.55
0.05 0 0.575
0.05 0 0.6
0.05 0 0.625
0.05 0 0.65
0.05 0 0.675
0.05 0 0.7
0.05 0 0.725
0.075 0 0
0.075 0 0.025
0.075 0 0.05
0.075 0 0.075
0.075 0 0.1
0.075 0 0.125
0.075 0 0.15
0.075 0 0.175
0.075 0 0.2
0.075 0 0.225
0.075 0 0.25
0.075 0 0.275
0.075 0 0.3
0.075 0 0.325
0.075 0 0.35
0.075 0 0.375
0.075 0 0.4
0.075 0 0.425
0.075 0 0.45
0.075 0 0.475
0.075 0 0.5
0.075 0 0.525
0.075 0 0.55
0.075 0 0.575
0.075 0 0.6
0.075 0 0.625
0.075 0 0.65
0.075 0 0.675
0.075 0 0.7
0.075 0 0.725
0.1 0 0
0.1 0 0.025
0.1 0 0.05
0.1 0 0.075
-845.826 0 -647.787
2.90154 0 -45.2895
-5.73796 0 -5.30439
31.5884 0 1.13323
0.107249 0 -1.18561
0.0838298 0 -1.18295
-1.9086 0 -0.833907
-7.74122 0 39.5849
-72.9639 0 -59.9539
-47.3337 0 -30.9183
18.7354 0 5.64052
-0.100043 0 -0.0304941
-70.3915 0 84.7063
-0.116545 0 1.11213
-0.353573 0 -0.27006
-0.355295 0 -0.281382
-10.8333 0 0.355291
-7.70993 0 0.0653395
1.09936 0 0.635841
0.108392 0 -0.19191
0.0877081 0 -0.217325
0.141652 0 -0.211589
0.124813 0 -0.303463
0.113796 0 -0.301319
0.131477 0 -0.278103
-1.8415 0 -0.2547
0.125 0 0
0.125 0 0.025
0.125 0 0.05
0.125 0 0.075
21.2576 0 35.7018
10.8097 0 -8.56659
-17.9741 0 -22.7643
0.392192 0 0.0800925
0.0960853 0 -1.20321
0.0596275 0 -1.17152
3.56091 0 2.48841
1.11732 0 9.25928
7.03483 0 -10.8675
22.1498 0 -11.9184
0.907836 0 3.1393
-4.75897 0 7.7479
17.9046 0 4.78412
0.622045 0 -0.603287
-0.245071 0 -0.82188
-2.93866 0 -0.934709
0.0647144 0 -3.32507
-138.167 0 337.207
0.0506868 0 0.00435937
0.116536 0 -0.212514
0.0971473 0 -0.207152
0.097163 0 -0.229079
0.11066 0 -0.309905
0.14047 0 -0.314566
0.103803 0 -0.224316
42.4108 0 28.8719
0.15 0 0
0.15 0 0.025
0.15 0 0.05
0.15 0 0.075
-5.17452 0 9.92945
5.3719 0 35.1234
-0.68081 0 6.94536
-0.287435 0 31.37
-4.70409 0 4.88632
0.54889 0 -0.131842
-10.0289 0 16.3324
2.05027 0 -1.10673
9.58821 0 -5.31225
14.0129 0 -10.9782
11.8367 0 1.17969
-70.7897 0 -32.9005
-0.0776014 0 -0.0603932
-4.01371 0 -14.1785
-1.84549 0 -0.56826
-38.5256 0 -340.447
2.24458 0 -1.19839
18.5275 0 4.87263
-0.496513 0 0.83409
-0.115094 0 -0.0647316
0.10662 0 -0.280925
0.0975274 0 -0.318104
0.135936 0 -0.270747
0.107229 0 -0.310063
0.176897 0 -0.260313
34.3871 0 11.9589
0.175 0 0
0.175 0 0.025
0.175 0 0.05
0.175 0 0.075
-3.0527 0 15.2916
-813.269 0 -16.9323
-0.548752 0 -9.41066
6.7459 0 -2.62817
17.3737 0 1.47004
-2.9171 0 4.75907
-43.2334 0 1.47374
148.887 0 106.412
-22.0845 0 0.651443
43.8914 0 -396.266
-5.31592 0 -44.0758
-109.705 0 334.322
0.409901 0 -0.487424
97.8111 0 -532.766
0.85024 0 -8.75285
-731.027 0 626.872
-2.03743 0 7.26099
-3.31789 0 -2.11563
0.597922 0 -0.664569
0.257516 0 -0.279708
0.191384 0 -0.268356
0.0962279 0 -0.207617
0.0973923 0 -0.168363
0.132784 0 -0.213454
0.103612 0 -1.19889
-1.49317 0 -1.39489
0.2 0 0
0.2 0 0.025
0.2 0 0.05
0.2 0 0.075
41.0402 0 1.18531
-10.7309 0 10.0123
-11.014 0 5.32528
2.0532 0 -1.66254
3.09044 0 -1.57456
-0.325662 0 46.1797
46.0999 0 -0.726445
779.42 0 -30.6259
-1.54499 0 -1.06036
-1.12494 0 -2.08633
24.0109 0 -55.5876
-8.22869 0 -80.0184
-0.413209 0 -3.52135
0.21529 0 -0.306239
-0.24427 0 -3.80947
-0.375699 0 -0.283852
-0.0108525 0 0.298352
0.0873126 0 -0.227272
-23.0663 0 8.544
0.201948 0 -0.272743
0.255006 0 -0.275199
0.236928 0 -0.289277
0.221007 0 -0.30538
0.167153 0 -0.278025
0.178481 0 -0.272549
8.99051 0 9.10237
0.225 0 0
0.225 0 0.025
0.225 0 0.05
0.225 0 0.075
12.8732 0 9.57726
-734.56 0 39.7062
3200.07 0 -537.98
3.29911 0 -1.54345
1.98588 0 -1.23322
-3.24236 0 -3.93519
23.9644 0 -50.8557
9.01654 0 -10.5343
0.070023 0 -1.17801
22162 0 5120.69
-9.48275 0 6.91737
17.6683 0 33.1747
3.19086 0 2.6127
0.929316 0 0.2113
0.397388 0 -0.493782
-0.351166 0 -0.275582
0.146463 0 0.292056
4.6332 0 -4.76035
0.183104 0 -0.258113
0.0698696 0 -0.200188
1.0199 0 -0.30422
0.249766 0 -0.2917
0.223199 0 -0.289048
0.0684841 0 -0.25339
0.171509 0 -0.263247
0.177851 0 -0.257884
0.25 0 0
0.25 0 0.025
0.25 0 0.05
0.25 0 0.075
406.487 0 373.014
16.2116 0 -11.6345
-3.35481 0 -0.232186
1.02252 0 -0.10033
1.52993 0 -0.348136
8.38343 0 0.0174363
2.51533 0 -1.48656
-9.1385 0 -9.99229
-5.42471 0 -8.22767
-55.8436 0 -21.1836
4.33597 0 -2.7495
-29.4793 0 48.5163
97.7597 0 -534.966
7.66031 0 -13.3501
0.395594 0 -0.475944
-0.360755 0 -0.277613
-21.4779 0 21.1232
1.25874 0 -1.08039
0.0908904 0 -0.224513
0.0841436 0 -0.210319
0.16123 0 -0.288079
0.224179 0 -0.282354
0.221063 0 -0.289918
0.176094 0 -0.280937
0.142505 0 -0.224111
0.0767633 0 0.00938985
0.275 0 0
0.275 0 0.025
0.275 0 0.05
0.275 0 0.075
17.0256 0 18.6104
-12.8466 0 26.1799
8.32132 0 2.1357
-2.38933 0 -0.997823
44.5359 0 -56.1257
-36.7001 0 64.2912
6.51162 0 -5.3902
1.16054 0 -2.60095
1.40684 0 -8.15487
-2.56011 0 3.99718
3.50045 0 -6.2725
6.50135 0 -3.73518
-2.8242 0 4.41106
4.58194 0 -43.5754
0.0354216 0 -0.234345
1.86644 0 1.33722
-0.353317 0 -0.275916
3.99363 0 -1.60793
12.5194 0 -0.140086
0.0802216 0 -0.176432
1.67413 0 50.9624
0.201215 0 -0.381359
0.165734 0 -0.267223
0.148346 0 -0.264324
0.0778885 0 -0.17354
7.06116 0 -8.18153
0.3 0 0
0.3 0 0.025
0.3 0 0.05
0.3 0 0.075
84.5805 0 -101.163
12.8403 0 2.04572
-6.53719 0 26.9435
-10.0399 0 2.52146
1702.72 0 -249.377
-30.8414 0 -169.185
-6.35129 0 15.7426
-18.5774 0 9.25288
1.88594 0 -0.781517
-113.299 0 416.562
-5.43941 0 3.16412
-0.154167 0 -3.47225
0.390823 0 -0.507312
-7.38852 0 1958.69
5.57785 0 -0.797064
3.99681 0 5.58304
-61.5643 0 -9.92005
-13.4176 0 -8.00453
-21.0767 0 20.8305
-24.0725 0 -10.3106
0.184972 0 -0.37184
0.226309 0 -0.275588
0.173108 0 -0.272176
-2.33921 0 0.754627
-3738.61 0 -4492.76
-4.61551 0 -7.53143
0.325 0 0
0.325 0 0.025
0.325 0 0.05
0.325 0 0.075
15.7539 0 0.755469
13.5965 0 32.9958
0.760687 0 5.20817
-30.4932 0 -354.268
32.4828 0 -713.499
14.1694 0 -9.76845
37.5862 0 -38.3373
4.06947 0 -5.94688
0.827009 0 -1.17861
4.58454 0 -5.25262
3200.54 0 -537.852
19.7324 0 16.7261
8.20085 0 5.57246
-5.25438 0 2.30401
0.30066 0 0.0801686
-0.297404 0 -0.9364
-0.546582 0 -2.99892
19.1139 0 -4.20565
-22.3196 0 -646.043
1.84663 0 -2.39044
0.0991826 0 -0.168864
71.0634 0 247
0.571784 0 5.7637
3.27992 0 2.34361
147.283 0 298.25
-6.17487 0 7.6433
0.35 0 0
0.35 0 0.025
0.35 0 0.05
0.35 0 0.075
0.35 0 0.1
0.35 0 0.125
0.35 0 0.15
0.35 0 0.175
0.35 0 0.2
0.35 0 0.225
0.35 0 0.25
0.35 0 0.275
0.35 0 0.3
0.35 0 0.325
0.35 0 0.35
0.35 0 0.375
0.35 0 0.4
0.35 0 0.425
0.35 0 0.45
0.35 0 0.475
0.35 0 0.5
0.35 0 0.525
0.35 0 0.55
0.35 0 0.575
0.35 0 0.6
0.35 0 0.625
0.35 0 0.65
0.35 0 0.675
0.35 0 0.7
0.35 0 0.725
0.375 0 0
0.375 0 0.025
0.375 0 0.05
0.375 0 0.075
0.375 0 0.1
0.375 0 0.125
0.375 0 0.15
0.375 0 0.175
0.375 0 0.2
0.375 0 0.225
0.375 0 0.25
0.375 0 0.275
0.375 0 0.3
0.375 0 0.325
0.375 0 0.35
0.375 0 0.375
0.375 0 0.4
0.375 0 0.425
0.375 0 0.45
0.375 0 0.475
0.375 0 0.5
0.375 0 0.525
0.375 0 0.55
0.375 0 0.575
0.375 0 0.6
0.375 0 0.625
0.375 0 0.65
0.375 0 0.675
0.375 0 0.7
0.375 0 0.725
0.4 0 0
0.4 0 0.025
0.4 0 0.05
0.4 0 0.075
0.4 0 0.1
0.4 0 0.125
0.4 0 0.15
0.4 0 0.175
0.4 0 0.2
0.4 0 0.225
0.4 0 0.25
0.4 0 0.275
0.4 0 0.3
0.4 0 0.325
0.4 0 0.35
0.4 0 0.375
0.4 0 0.4
0.4 0 0.425
0.4 0 0.45
0.4 0 0.475
0.4 0 0.5
0.4 0 0.525
0.4 0 0.55
0.4 0 0.575
0.4 0 0.6
0.4 0 0.625
0.4 0 0.65
0.4 0 0.675
0.4 0 0.7
0.4 0 0.725
0.425 0 0
0.425 0 0.025
0.425 0 0.05
0.425 0 0.075
0.425 0 0.1
0.425 0 0.125
0.425 0 0.15
0.425 0 0.175
0.425 0 0.2
0.425 0 0.225
0.425 0 0.25
0.425 0 0.275
0.425 0 0.3
0.425 0 0.325
0.425 0 0.35
0.425 0 0.375
0.425 0 0.4
0.425 0 0.425
0.425 0 0.45
0.425 0 0.475
0.425 0 0.5
0.425 0 0.525
0.425 0 0.55
0.425 0 0.575
0.425 0 0.6
0.425 0 0.625
0.425 0 0.65
0.425 0 0.675
0.425 0 0.7
0.425 0 0.725
0.45 0 0
0.45 0 0.025
0.45 0 0.05
0.45 0 0.075
0.45 0 0.1
0.45 0 0.125
0.45 0 0.15
0.45 0 0.175
0.45 0 0.2
0.45 0 0.225
0.45 0 0.25
0.45 0 0.275
0.45 0 0.3
0.45 0 0.325
0.45 0 0.35
0.45 0 0.375
0.45 0 0.4
0.45 0 0.425
0.45 0 0.45
0.45 0 0.475
0.45 0 0.5
0.45 0 0.525
0.45 0 0.55
0.45 0 0.575
0.45 0 0.6
0.45 0 0.625
0.45 0 0.65
0.45 0 0.675
0.45 0 0.7
0.45 0 0.725
0.475 0 0
0.475 0 0.025
0.475 0 0.05
0.475 0 0.075
0.475 0 0.1
0.475 0 0.125
0.475 0 0.15
0.475 0 0.175
0.475 0 0.2
0.475 0 0.225
0.475 0 0.25
0.475 0 0.275
0.475 0 0.3
0.475 0 0.325
0.475 0 0.35
0.475 0 0.375
0.475 0 0.4
0.475 0 0.425
0.475 0 0.45
0.475 0 0.475
0.475 0 0.5
0.475 0 0.525
0.475 0 0.55
0.475 0 0.575
0.475 0 0.6
0.475 0 0.625
0.475 0 0.65
0.475 0 0.675
0.475 0 0.7
0.475 0 0.725
0.5 0 0
0.5 0 0.025
0.5 0 0.05
0.5 0 0.075
0.5 0 0.1
0.5 0 0.125
0.5 0 0.15
0.5 0 0.175
0.5 0 0.2
0.5 0 0.225
0.5 0 0.25
0.5 0 0.275
0.5 0 0.3
0.5 0 0.325
0.5 0 0.35
0.5 0 0.375
0.5 0 0.4
0.5 0 0.425
0.5 0 0.45
0.5 0 0.475
0.5 0 0.5
0.5 0 0.525
0.5 0 0.55
0.5 0 0.575
0.5 0 0.6
0.5 0 0.625
0.5 0 0.65
0.5 0 0.675
0.5 0 0.7
0.5 0 0.725
0.525 0 0
0.525 0 0.025
0.525 0 0.05
0.525 0 0.075
0.525 0 0.1
0.525 0 0.125
0.525 0 0.15
0.525 0 0.175
[...]
<PointData>
<DataArray NumberOfComponents='1' type='Int32' Name='ParticleType' format='ascii'>
2
2
2
2
2
2
2
2
2
2
2
2
2
2
2
2
2
2
2
2
2
2
2
2
2
2
2
2
2
2
2
2
2
2
2
2
2
2
2
2
2
2
2
2
2
2
2
2
2
2
2
2
2
2
2
2
2
2
2
2
2
2
1
1
1
1
1
1
1
1
1
1
1
1
1
1
1
1
1
1
1
1
1
1
1
1
1
1
1
1
2
2
1
1
1
1
1
1
1
1
1
1
1
1
1
1
1
1
1
1
1
1
1
1
1
1
1
1
1
1
2
2
1
1
0
0
0
0
0
0
0
0
0
0
0
0
0
0
0
0
0
0
0
0
0
0
0
0
0
0
2
2
1
1
0
0
0
0
0
0
0
0
0
0
0
0
0
0
0
0
0
0
0
0
0
0
0
0
0
0
2
2
1
1
0
0
0
0
0
0
0
0
0
0
0
0
0
0
0
0
0
0
0
0
0
0
0
0
0
0
2
2
1
1
0
0
0
0
0
0
0
0
0
0
0
0
0
0
0
0
0
0
0
0
0
0
0
0
0
0
2
2
1
1
0
0
0
0
0
0
0
0
0
0
0
0
0
0
0
0
0
0
0
0
0
0
0
0
0
0
2
2
1
1
0
0
0
0
0
0
0
0
0
0
0
0
0
0
0
0
0
0
0
0
0
0
0
0
0
0
2
2
1
1
0
0
0
0
0
0
0
0
0
0
0
0
0
0
0
0
0
0
0
0
0
0
0
0
0
0
2
2
1
1
0
0
0
0
0
0
0
0
0
0
0
0
0
0
0
0
0
0
0
0
0
0
0
0
0
0
2
2
1
1
0
0
0
0
0
0
0
0
0
0
0
0
0
0
0
0
0
0
0
0
0
0
0
0
0
0
2
2
1
1
0
0
0
0
0
0
0
0
0
0
0
0
0
0
0
0
0
0
0
0
0
0
0
0
0
0
2
2
1
1
-1
-1
-1
-1
-1
-1
-1
-1
-1
-1
-1
-1
-1
-1
-1
-1
-1
-1
-1
-1
-1
-1
-1
-1
-1
-1
2
2
1
1
-1
-1
-1
-1
-1
-1
-1
-1
-1
-1
-1
-1
-1
-1
-1
-1
-1
-1
-1
-1
-1
-1
-1
-1
-1
-1
2
2
1
1
-1
-1
-1
-1
-1
-1
-1
-1
-1
-1
-1
-1
-1
-1
-1
-1
-1
-1
-1
-1
-1
-1
-1
-1
-1
-1
2
2
1
1
-1
-1
-1
-1
-1
-1
-1
-1
-1
-1
-1
-1
-1
-1
-1
-1
-1
-1
-1
-1
-1
-1
-1
-1
-1
-1
2
2
1
1
-1
-1
-1
-1
-1
-1
-1
-1
-1
-1
-1
-1
-1
-1
-1
-1
-1
-1
-1
-1
-1
-1
-1
-1
-1
-1
2
2
1
1
-1
-1
-1
-1
-1
-1
-1
-1
-1
-1
-1
-1
-1
-1
-1
-1
-1
-1
-1
-1
-1
-1
-1
-1
-1
-1
2
2
1
1
-1
-1
-1
-1
-1
-1
-1
-1
-1
-1
-1
-1
-1
-1
-1
-1
-1
-1
-1
-1
-1
-1
-1
-1
-1
-1
2
2
1
1
-1
-1
-1
-1
-1
-1
-1
-1
-1
-1
-1
-1
-1
-1
-1
-1
-1
-1
-1
-1
-1
-1
-1
-1
-1
-1
2
2
1
1
-1
-1
-1
-1
-1
-1
-1
-1
-1
-1
-1
-1
-1
-1
-1
-1
-1
-1
-1
-1
-1
-1
-1
-1
-1
-1
2
2
1
1
-1
-1
-1
-1
-1
-1
-1
-1
-1
-1
-1
-1
-1
-1
-1
-1
-1
-1
-1
-1
-1
-1
-1
-1
-1
-1
2
2
1
1
-1
-1
-1
-1
-1
-1
-1
-1
-1
-1
-1
-1
-1
-1
-1
-1
-1
-1
-1
-1
-1
-1
-1
-1
-1
-1
2
2
1
1
-1
-1
-1
-1
-1
-1
-1
-1
-1
-1
-1
-1
-1
-1
-1
-1
-1
-1
-1
-1
-1
-1
-1
-1
-1
-1
2
2
1
1
-1
-1
-1
-1
-1
-1
-1
-1
-1
-1
-1
-1
-1
-1
-1
-1
-1
-1
-1
-1
-1
-1
-1
-1
-1
-1
2
2
1
1
-1
-1
-1
-1
-1
-1
-1
-1
-1
-1
-1
-1
-1
-1
-1
-1
-1
-1
-1
-1
-1
-1
-1
-1
-1
-1
2
2
1
1
-1
-1
-1
-1
-1
-1
-1
-1
-1
-1
-1
-1
-1
-1
-1
-1
-1
-1
-1
-1
-1
-1
-1
-1
-1
-1
2
2
1
1
-1
-1
-1
-1
-1
-1
-1
-1
-1
-1
-1
-1
-1
-1
-1
-1
-1
-1
-1
-1
-1
-1
-1
-1
-1
-1
2
2
1
1
-1
-1
-1
-1
-1
-1
-1
-1
-1
-1
-1
-1
-1
-1
-1
-1
-1
-1
-1
-1
-1
-1
-1
-1
-1
-1
2
2
1
1
-1
-1
-1
-1
-1
-1
-1
-1
-1
-1
-1
-1
-1
-1
-1
-1
-1
-1
-1
-1
-1
-1
-1
-1
-1
-1
2
2
1
1
-1
-1
-1
-1
-1
-1
-1
-1
-1
-1
-1
-1
-1
-1
-1
-1
-1
-1
-1
-1
-1
-1
-1
-1
-1
-1
2
2
1
1
-1
-1
-1
-1
-1
-1
-1
-1
-1
-1
-1
-1
-1
-1
-1
-1
-1
-1
-1
-1
-1
-1
-1
-1
-1
-1
2
2
1
1
-1
-1
-1
-1
-1
-1
-1
-1
-1
-1
-1
-1
-1
-1
-1
-1
-1
-1
-1
-1
-1
-1
-1
-1
-1
-1
2
2
1
1
-1
-1
-1
-1
-1
-1
-1
-1
-1
-1
-1
-1
-1
-1
-1
-1
-1
-1
-1
-1
-1
-1
-1
-1
-1
-1
2
2
1
1
-1
-1
-1
-1
-1
-1
-1
-1
-1
-1
-1
-1
-1
-1
-1
-1
-1
-1
-1
-1
-1
-1
-1
-1
-1
-1
2
2
1
1
-1
-1
-1
-1
-1
-1
-1
-1
-1
-1
-1
-1
-1
-1
-1
-1
-1
-1
-1
-1
-1
-1
-1
-1
-1
-1
2
2
1
1
-1
-1
-1
-1
-1
-1
-1
-1
-1
-1
-1
-1
-1
-1
-1
-1
-1
-1
-1
-1
-1
-1
-1
-1
-1
-1
2
2
1
1
-1
-1
-1
-1
-1
-1
-1
-1
-1
-1
-1
-1
-1
-1
-1
-1
-1
-1
-1
-1
-1
-1
-1
-1
-1
-1
2
2
1
1
-1
-1
-1
-1
-1
-1
-1
-1
-1
-1
-1
-1
-1
-1
-1
-1
-1
-1
-1
-1
-1
-1
-1
-1
-1
-1
2
2
1
1
-1
-1
-1
-1
-1
-1
-1
-1
-1
-1
-1
-1
-1
-1
-1
-1
-1
-1
-1
-1
-1
-1
-1
-1
-1
-1
2
2
1
1
-1
-1
-1
-1
-1
-1
-1
-1
-1
-1
-1
-1
-1
-1
-1
-1
-1
-1
-1
-1
-1
-1
-1
-1
-1
-1
2
2
1
1
-1
-1
-1
-1
-1
-1
-1
-1
-1
-1
-1
-1
-1
-1
-1
-1
-1
-1
-1
-1
-1
-1
-1
-1
-1
-1
2
2
1
1
-1
-1
-1
-1
-1
-1
-1
-1
-1
-1
-1
-1
-1
-1
-1
-1
-1
-1
-1
-1
-1
-1
-1
-1
-1
-1
2
2
1
1
-1
-1
-1
-1
-1
-1
-1
-1
-1
-1
-1
-1
-1
-1
-1
-1
-1
-1
-1
-1
-1
-1
-1
-1
-1
-1
2
2
1
1
-1
-1
-1
-1
-1
-1
-1
-1
-1
-1
-1
-1
-1
-1
-1
-1
-1
-1
-1
-1
-1
-1
-1
-1
-1
-1
2
2
1
1
-1
-1
-1
-1
-1
-1
-1
-1
-1
-1
-1
-1
-1
-1
-1
-1
-1
-1
-1
-1
-1
-1
-1
-1
-1
-1
2
2
1
1
-1
-1
-1
-1
-1
-1
-1
-1
-1
-1
-1
-1
-1
-1
-1
-1
-1
-1
-1
-1
-1
-1
-1
-1
-1
-1
2
2
1
1
-1
-1
-1
-1
-1
-1
-1
-1
-1
-1
-1
-1
-1
-1
-1
-1
-1
-1
-1
-1
-1
-1
-1
-1
-1
-1
2
2
1
1
-1
-1
-1
-1
-1
-1
-1
-1
-1
-1
-1
-1
-1
-1
-1
-1
-1
-1
-1
-1
-1
-1
-1
-1
-1
-1
2
2
1
1
-1
-1
-1
-1
-1
-1
-1
-1
-1
-1
-1
-1
-1
-1
-1
-1
-1
-1
-1
-1
-1
-1
-1
-1
-1
-1
2
2
1
1
-1
-1
-1
-1
-1
-1
-1
-1
-1
-1
-1
-1
-1
-1
-1
-1
-1
-1
-1
-1
-1
-1
-1
-1
-1
-1
2
2
1
1
-1
-1
-1
-1
-1
-1
-1
-1
-1
-1
-1
-1
-1
-1
-1
-1
-1
-1
-1
-1
-1
-1
-1
-1
-1
-1
2
2
1
1
-1
-1
-1
-1
-1
-1
-1
-1
-1
-1
-1
-1
-1
-1
-1
-1
-1
-1
-1
-1
-1
-1
-1
-1
-1
-1
2
2
1
1
-1
-1
-1
-1
-1
-1
-1
-1
-1
-1
-1
-1
-1
-1
-1
-1
-1
-1
-1
-1
-1
-1
-1
-1
-1
-1
2
2
1
1
-1
-1
-1
-1
-1
-1
-1
-1
-1
-1
-1
-1
-1
-1
-1
-1
-1
-1
-1
-1
-1
-1
-1
-1
-1
-1
2
2
1
1
-1
-1
-1
-1
-1
-1
-1
-1
-1
-1
-1
-1
-1
-1
-1
-1
-1
-1
-1
-1
-1
-1
-1
-1
-1
-1
2
2
1
1
-1
-1
-1
-1
-1
-1
-1
-1
-1
-1
-1
-1
-1
-1
-1
-1
-1
-1
-1
-1
-1
-1
-1
-1
-1
-1
2
2
1
1
-1
-1
-1
-1
-1
-1
-1
-1
-1
-1
-1
-1
-1
-1
-1
-1
-1
-1
-1
-1
-1
-1
-1
-1
-1
-1
2
2
1
1
-1
-1
-1
-1
-1
-1
-1
-1
-1
-1
-1
-1
-1
-1
-1
-1
-1
-1
-1
-1
-1
-1
-1
-1
-1
-1
2
2
1
1
-1
-1
-1
-1
-1
-1
-1
-1
-1
-1
-1
-1
-1
-1
-1
-1
-1
-1
-1
-1
-1
-1
-1
-1
-1
-1
2
2
1
1
-1
-1
-1
-1
-1
-1
-1
-1
-1
-1
-1
-1
-1
-1
-1
-1
-1
-1
-1
-1
-1
-1
-1
-1
-1
-1
2
2
1
1
-1
-1
-1
-1
-1
-1
-1
-1
-1
-1
-1
-1
-1
-1
-1
-1
-1
-1
-1
-1
-1
-1
-1
-1
-1
-1
2
2
1
1
-1
-1
-1
-1
-1
-1
-1
-1
-1
-1
-1
-1
-1
-1
-1
-1
-1
-1
-1
-1
-1
-1
-1
-1
-1
-1
2
2
1
1
-1
-1
-1
-1
-1
-1
-1
-1
-1
-1
-1
-1
-1
-1
-1
-1
-1
-1
-1
-1
-1
-1
-1
-1
-1
-1
2
2
1
1
1
1
1
1
1
1
1
1
1
1
1
1
1
1
1
1
1
1
1
1
1
1
1
1
1
1
2
2
1
1
1
1
1
1
1
1
1
1
1
1
1
1
1
1
1
1
1
1
1
1
1
1
1
1
1
1
2
2
2
2
2
2
2
2
2
2
2
2
2
2
2
2
2
2
2
2
2
2
2
2
2
2
2
2
2
2
2
2
2
2
2
2
2
2
2
2
2
2
2
2
2
2
2
2
2
2
2
2
2
2
2
2
2
2
2
2
</DataArray>
<DataArray NumberOfComponents='1' type='Float32' Name='Velocity' format='ascii'>
0
0
0
0
0
0
0
0
0
0
0
0
0
0
0
0
0
0
0
0
0
0
0
0
0
0
0
0
0
0
0
0
0
0
0
0
0
0
0
0
0
0
0
0
0
0
0
0
0
0
0
0
0
0
0
0
0
0
0
0
0
0
0
0
0
0
0
0
0
0
0
0
0
0
0
0
0
0
0
0
0
0
0
0
0
0
0
0
0
0
0
0
0
0
0
0
0
0
0
0
0
0
0
0
0
0
0
0
0
0
0
0
0
0
0
0
0
0
0
0
0
0
0
0
8271.2
188.256
84.5057
182.042
7.66752
4.77633
20.7115
240.229
610.405
365.804
135.703
5.05933
971.331
9.32372
10.6498
10.5637
131.853
94.1544
45.4067
4.10766
4.13997
3.51656
5.12425
5.0949
5.48968
16.9508
0
0
0
0
159.772
57.1952
131.086
2.03932
5.22924
5.75389
32.7507
90.3214
83.7396
168.494
19.8226
103.504
156.845
16.2859
10.3786
38.4681
45.7291
4725.72
7.99019
4.01007
4.58558
4.36798
6.37123
6.07695
4.55594
1394.17
0
0
0
0
43.0786
166.663
28.6228
592.141
56.2354
7.45586
102.579
16.0772
70.3997
114.708
495.327
1190.9
4.25943
137.707
19.4553
5440.37
29.3503
308.636
11.9506
5.93057
6.64058
5.90231
4.38061
5.4727
4.46055
587.29
0
0
0
0
58.7855
5988.78
47.7751
45.3769
397.268
67.611
263.226
2004.48
134.939
13758.6
350.388
4562.29
19.2513
18666.6
82.0503
10581.2
90.2859
49.3852
22.8883
7.51545
4.95407
3.73504
3.71461
3.2183
144.213
18.5747
0
0
0
0
183.326
55.975
334.723
29.6927
49.9157
251.548
864.097
13216.7
18.0671
301.076
991.228
634.211
46.1132
9.79232
36.059
7.38786
5.41278
6.68868
669.332
5.51986
6.89756
7.62391
12.2759
3.80741
2.82067
310.211
0
0
0
0
65.6636
3444.05
41577.4
55.5778
21.8894
28.5973
522.548
137.366
7.45238
156868
152.959
453.722
258.615
181.968
10.4715
7.96919
6.5585
106.352
6.81754
2.41458
20.6997
7.0719
8.20104
5.9887
4.30506
4.8024
0
0
0
0
3466.09
97.7355
18.9386
4.05686
8.2585
67.3778
22.7253
89.0632
65.1287
413.789
164.141
1072.98
18740.8
153.187
8.5383
8.77947
404.25
32.2057
6.26915
3.13592
3.12488
7.37376
8.49724
8.17033
3.66462
1.56164
0
0
0
0
120.595
156.275
140.094
15.0814
638.273
506.963
53.7779
18.542
53.8828
30.8621
51.363
70.3543
41.5075
713.295
5.71452
19.4566
6.84293
68.1623
523.221
3.81858
509.489
7.00792
5.27009
4.60748
3.57371
69.4232
0
0
0
0
830.659
77.364
123.06
73.9714
21779.5
2731.67
148.78
365.665
13.7911
16005.9
41.7578
47.8212
3.73796
17031.7
97.5369
51.4782
403.118
274.659
398.147
460.059
6.585
9.52739
5.00722
30.5924
28518.1
58.6314
0
0
0
0
132.563
136.538
31.9069
1662.87
3338.67
159.164
477.622
68.2005
14.8809
65.1341
41583.2
383.568
141.37
74.4898
7.31048
9.46289
40.5665
125.679
4092.32
25.5058
4.08371
1473.94
385.75
32.6881
1305.45
23.4599
0
0
0
0
0
0
0
0
0
0
0
0
0
0
0
0
0
0
0
0
0
0
0
0
0
0
0
0
0
0
0
0
0
0
0
0
0
0
0
0
0
0
0
0
0
0
0
0
0
0
0
0
0
0
0
0
0
0
0
0
0
0
0
0
0
0
0
0
0
0
0
0
0
0
0
0
0
0
0
0
0
0
0
0
0
0
0
0
0
0
0
0
0
0
0
0
0
0
0
0
0
0
0
0
0
0
0
0
0
0
0
0
0
0
0
0
0
0
0
0
0
0
0
0
0
0
0
0
0
0
0
0
0
0
0
0
0
0
0
0
0
0
0
0
0
0
0
0
0
0
0
0
0
0
0
0
0
0
0
0
0
0
0
0
0
0
0
0
0
0
0
0
0
0
0
0
0
0
0
0
0
0
0
0
0
0
0
0
0
0
0
0
0
0
0
0
0
0
0
0
0
0
0
0
0
0
0
0
0
0
0
0
0
0
0
0
0
0
0
0
0
0
0
0
0
0
0
0
0
0
0
0
0
0
0
0
0
0
0
0
0
0
0
0
0
0
0
0
0
0
0
0
0
0
0
0
0
0
0
0
0
0
0
0
0
0
0
0
0
0
0
0
0
0
0
0
0
0
0
0
0
0
0
0
0
0
0
0
0
0
0
0
0
0
0
0
0
0
0
0
0
0
0
0
0
0
0
0
0
0
0
0
0
0
0
0
0
0
0
0
0
0
0
0
0
0
0
0
0
0
0
0
0
0
0
0
0
0
0
0
0
0
0
0
0
0
0
0
0
0
0
0
0
0
0
0
0
0
0
0
0
0
0
0
0
0
0
0
0
0
0
0
0
0
0
0
0
0
0
0
0
0
0
0
0
0
0
0
0
0
0
0
0
0
0
0
0
0
0
0
0
0
0
0
0
0
0
0
0
0
0
0
0
0
0
0
0
0
0
0
0
0
0
0
0
0
0
0
0
0
0
0
0
0
0
0
0
0
0
0
0
0
0
0
0
0
0
0
0
0
0
0
0
0
0
0
0
0
0
0
0
0
0
0
0
0
0
0
0
0
0
0
0
0
0
0
0
0
0
0
0
0
0
0
0
0
0
0
0
0
0
0
0
0
0
0
0
0
0
0
0
0
0
0
0
0
0
0
0
0
0
0
0
0
0
0
0
0
0
0
0
0
0
0
0
0
0
0
0
0
0
0
0
0
0
0
0
0
0
0
0
0
0
0
0
0
0
0
0
0
0
0
0
0
0
0
0
0
0
0
0
0
0
0
0
0
0
0
0
0
0
0
0
0
0
0
0
0
0
0
0
0
0
0
0
0
0
0
0
0
0
0
0
0
0
0
0
0
0
0
0
0
0
0
0
0
0
0
0
0
0
0
0
0
0
0
0
0
0
0
0
0
0
0
0
0
0
0
0
0
0
0
0
0
0
0
0
0
0
0
0
0
0
0
0
0
0
0
0
0
0
0
0
0
0
0
0
0
0
0
0
0
0
0
0
0
0
0
0
0
0
0
0
0
0
0
0
0
0
0
0
0
0
0
0
0
0
0
0
0
0
0
0
0
0
0
0
0
0
0
0
0
0
0
0
0
0
0
0
0
0
0
0
0
0
0
0
0
0
0
0
0
0
0
0
0
0
0
0
0
0
0
0
0
0
0
0
0
0
0
0
0
0
0
0
0
0
0
0
0
0
0
0
0
0
0
0
0
0
0
0
0
0
0
0
0
0
0
0
0
0
0
0
0
0
0
0
0
0
0
0
0
0
0
0
0
0
0
0
0
0
0
0
0
0
0
0
0
0
0
0
0
0
0
0
0
0
0
0
0
0
0
0
0
0
0
0
0
0
0
0
0
0
0
0
0
0
0
0
0
0
0
0
0
0
0
0
0
0
0
0
0
0
0
0
0
0
0
0
0
0
0
0
0
0
0
0
0
0
0
0
0
0
0
0
0
0
0
0
0
0
0
0
0
0
0
0
0
0
0
0
0
0
0
0
0
0
0
0
0
0
0
0
0
0
0
0
0
0
0
0
0
0
0
0
0
0
0
0
0
0
0
0
0
0
0
0
0
0
0
0
0
0
0
0
0
0
0
0
0
0
0
0
0
0
0
0
0
0
0
0
0
0
0
0
0
0
0
0
0
0
0
0
0
0
0
0
0
0
0
0
0
0
0
0
0
0
0
0
0
0
0
0
0
0
0
0
0
0
0
0
0
0
0
0
0
0
0
0
0
0
0
0
0
0
0
0
0
0
0
0
0
0
0
0
0
0
0
0
0
0
0
0
0
0
0
0
0
0
0
0
0
0
0
0
0
0
0
0
0
0
0
0
0
0
0
0
0
0
0
0
0
0
0
0
0
0
0
0
0
0
0
0
0
0
0
0
0
0
0
0
0
0
0
0
0
0
0
0
0
0
0
0
0
0
0
0
0
0
0
0
0
0
0
0
0
0
0
0
0
0
0
0
0
0
0
0
0
0
0
0
0
0
0
0
0
0
0
0
0
0
0
0
0
0
0
0
0
0
0
0
0
0
0
0
0
0
0
0
0
0
0
0
0
0
0
0
0
0
0
0
0
0
0
0
0
0
0
0
0
0
0
0
0
0
0
0
0
0
0
0
0
0
0
0
0
0
0
0
0
0
0
0
0
0
0
0
0
0
0
0
0
0
0
0
0
0
0
0
0
0
0
0
0
0
0
0
0
0
0
0
0
0
0
0
0
0
0
0
0
0
0
0
0
0
0
0
0
0
0
0
0
0
0
0
0
0
0
0
0
0
0
0
0
0
0
0
0
0
0
0
0
0
0
0
0
0
0
0
0
0
0
0
0
0
0
0
0
0
0
0
0
0
0
0
0
0
0
0
0
0
0
0
0
0
0
0
0
0
0
0
0
0
0
0
0
0
0
0
0
0
0
0
0
0
0
0
0
0
0
0
0
0
0
0
0
0
0
0
0
0
0
0
0
0
0
0
0
0
0
0
0
0
0
0
0
0
0
0
0
0
0
0
0
0
0
0
0
0
0
0
0
0
0
0
0
0
0
0
0
0
0
0
0
0
0
0
0
0
0
0
0
0
0
0
0
0
0
0
0
0
0
0
0
0
0
0
0
0
0
0
0
0
0
0
0
0
0
0
0
0
0
0
0
0
0
0
0
0
0
0
0
0
0
0
0
0
0
0
0
0
0
0
0
0
0
0
0
0
0
0
0
0
0
0
0
0
0
0
0
0
0
0
0
0
0
0
0
0
0
0
0
0
0
0
0
0
0
0
0
0
0
0
0
0
0
0
0
0
0
0
0
0
0
0
0
0
0
0
0
0
0
0
0
0
0
0
0
0
0
0
0
0
0
0
0
0
0
0
0
0
0
0
0
0
0
0
0
0
0
0
0
0
0
0
0
0
0
0
0
0
0
0
0
0
0
0
0
0
0
0
0
0
0
0
0
0
0
0
0
0
0
0
0
0
0
0
0
0
0
0
0
0
0
0
0
0
0
0
0
0
0
0
0
0
0
0
0
0
0
0
0
0
0
0
0
0
0
0
0
0
0
0
0
0
0
0
0
0
0
0
0
0
0
0
0
0
0
0
0
0
0
0
0
0
0
0
0
0
0
0
0
0
0
0
0
0
0
0
0
0
0
0
0
0
0
0
0
0
0
0
0
0
0
0
0
0
0
0
0
0
0
0
0
0
0
0
0
0
0
0
0
0
0
0
0
0
0
0
0
0
0
0
0
0
0
0
0
0
0
0
0
0
0
0
0
0
0
0
0
0
0
0
0
0
0
0
0
0
0
</DataArray>
<DataArray NumberOfComponents='1' type='Float32' Name='pressure' format='ascii'>
0
0
0
0
0
0
0
0
0
0
0
0
0
0
0
0
0
0
0
0
0
0
0
0
0
0
0
0
0
0
0
0
0
0
0
0
0
0
0
0
0
0
0
0
0
0
0
0
0
0
0
0
0
0
0
0
0
0
0
0
0
0
0
0
0
0
0
0
0
0
0
0
0
0
0
0
0
0
0
0
0
0
0
0
0
0
0
0
0
0
0
0
0
0
0
0
0
0
0
0
0
0
0
0
0
0
0
0
0
0
0
0
0
0
0
0
0
0
0
26932.3
0
0
0
0
0
0
0
0
0
0
0
0
0
0
0
80430.4
0
0
0
0
0
0
0
0
0
0
0
0
0
0
0
0
0
0
0
0
0
0
0
9363.2
0
0
0
0
0
0
0
1.43808e+06
0
0
0
0
0
0
0
0
0
10230.9
0
0
0
0
0
0
0
0
0
0
0
0
0
0
0
0
0
0
86769.4
0
0
0
0
0
0
87057.7
0
0
0
0
0
0
0
0
0
0
0
0
0
0
0
0
0
0
0
0
0
0
0
0
0
0
0
0
1.43808e+06
0
0
0
0
0
0
0
0
0
0
0
0
0
0
0
0
0
0
0
0
0
0
0
0
0
0
0
0
0
0
0
0
0
0
0
0
0
0
0
0
0
0
0
0
0
0
0
0
0
0
0
0
0
0
0
0
0
3.88662e+06
0
0
0
0
0
0
32007.8
0
0
0
0
0
0
0
0
0
0
0
0
0
0
0
0
0
0
0
0
0
0
0
0
0
0
0
0
0
0
0
0
0
0
0
0
0
0
0
0
0
0
0
0
0
0
0
0
0
0
128048
0
0
0
0
0
0
41938.8
0
0
0
0
0
0
0
0
0
0
0
0
0
0
0
0
0
0
0
0
13806.7
0
0
0
0
0
0
0
16223.3
0
0
0
0
0
0
0
0
0
0
0
0
0
0
0
0
0
0
0
0
0
0
0
0
0
0
0
0
0
0
0
0
0
0
0
0
0
0
0
0
0
0
0
0
0
0
0
0
0
0
0
0
0
0
0
0
0
0
0
0
0
0
0
0
0
0
0
0
0
0
0
0
0
0
0
0
0
0
0
0
0
0
0
0
0
0
0
0
0
0
0
0
0
0
0
0
0
0
0
0
0
0
0
0
0
0
0
0
0
0
0
0
0
0
0
0
0
0
0
0
0
0
0
0
0
0
0
0
0
0
0
0
0
0
0
0
0
0
0
0
0
0
0
0
0
0
0
0
0
0
0
0
0
0
0
0
0
0
0
0
0
0
0
0
0
0
0
0
0
0
0
0
0
0
0
0
0
0
0
0
0
0
0
0
0
0
0
0
0
0
0
0
0
0
0
0
0
0
0
0
0
0
0
0
0
0
0
0
0
0
0
0
0
0
0
0
0
0
0
0
0
0
0
0
0
0
0
0
0
0
0
0
0
0
0
0
0
0
0
0
0
0
0
0
0
0
0
0
0
0
0
0
0
0
0
0
0
0
0
0
0
0
0
0
0
0
0
0
0
0
0
0
0
0
0
0
0
0
0
0
0
0
0
0
0
0
0
0
0
0
0
0
0
0
0
0
0
0
0
0
0
0
0
0
0
0
0
0
0
0
0
0
0
0
0
0
0
0
0
0
0
0
0
0
0
0
0
0
0
0
0
0
0
0
0
0
0
0
0
0
0
0
0
0
0
0
0
0
0
0
0
0
0
0
0
0
0
0
0
0
0
0
0
0
0
0
0
0
0
0
0
0
0
0
0
0
0
0
0
0
0
0
0
0
0
0
0
0
0
0
0
0
0
0
0
0
0
0
0
0
0
0
0
0
0
0
0
0
0
0
0
0
0
0
0
0
0
0
0
0
0
0
0
0
0
0
0
0
0
0
0
0
0
0
0
0
0
0
0
0
0
0
0
0
0
0
0
0
0
0
0
0
0
0
0
0
0
0
0
0
0
0
0
0
0
0
0
0
0
0
0
0
0
0
0
0
0
0
0
0
0
0
0
0
0
0
0
0
0
0
0
0
0
0
0
0
0
0
0
0
0
0
0
0
0
0
0
0
0
0
0
0
0
0
0
0
0
0
0
0
0
0
0
0
0
0
0
0
0
0
0
0
0
0
0
0
0
0
0
0
0
0
0
0
0
0
0
0
0
0
0
0
0
0
0
0
0
0
0
0
0
0
0
0
0
0
0
0
0
0
0
0
0
0
0
0
0
0
0
0
0
0
0
0
0
0
0
0
0
0
0
0
0
0
0
0
0
0
0
0
0
0
0
0
0
0
0
0
0
0
0
0
0
0
0
0
0
0
0
0
0
0
0
0
0
0
0
0
0
0
0
0
0
0
0
0
0
0
0
0
0
0
0
0
0
0
0
0
0
0
0
0
0
0
0
0
0
0
0
0
0
0
0
0
0
0
0
0
0
0
0
0
0
0
0
0
0
0
0
0
0
0
0
0
0
0
0
0
0
0
0
0
0
0
0
0
0
0
0
0
0
0
0
0
0
0
0
0
0
0
0
0
0
0
0
0
0
0
0
0
0
0
0
0
0
0
0
0
0
0
0
0
0
0
0
0
0
0
0
0
0
0
0
0
0
0
0
0
0
0
0
0
0
0
0
0
0
0
0
0
0
0
0
0
0
0
0
0
0
0
0
0
0
0
0
0
0
0
0
0
0
0
0
0
0
0
0
0
0
0
0
0
0
0
0
0
0
0
0
0
0
0
0
0
0
0
0
0
0
0
0
0
0
0
0
0
0
0
0
0
0
0
0
0
0
0
0
0
0
0
0
0
0
0
0
0
0
0
0
0
0
0
0
0
0
0
0
0
0
0
0
0
0
0
0
0
0
0
0
0
0
0
0
0
0
0
0
0
0
0
0
0
0
0
0
0
0
0
0
0
0
0
0
0
0
0
0
0
0
0
0
0
0
0
0
0
0
0
0
0
0
0
0
0
0
0
0
0
0
0
0
0
0
0
0
0
0
0
0
0
0
0
0
0
0
0
0
0
0
0
0
0
0
0
0
0
0
0
0
0
0
0
0
0
0
0
0
0
0
0
0
0
0
0
0
0
0
0
0
0
0
0
0
0
0
0
0
0
0
0
0
0
0
0
0
0
0
0
0
0
0
0
0
0
0
0
0
0
0
0
0
0
0
0
0
0
0
0
0
0
0
0
0
0
0
0
0
0
0
0
0
0
0
0
0
0
0
0
0
0
0
0
0
0
0
0
0
0
0
0
0
0
0
0
0
0
0
0
0
0
0
0
0
0
0
0
0
0
0
0
0
0
0
0
0
0
0
0
0
0
0
0
0
0
0
0
0
0
0
0
0
0
0
0
0
0
0
0
0
0
0
0
0
0
0
0
0
0
0
0
0
0
0
0
0
0
0
0
0
0
0
0
0
0
0
0
0
0
0
0
0
0
0
0
0
0
0
0
0
0
0
0
0
0
0
0
0
0
0
0
0
0
0
0
0
0
0
0
0
0
0
0
0
0
0
0
0
0
0
0
0
0
0
0
0
0
0
0
0
0
0
0
0
0
0
0
0
0
0
0
0
0
0
0
0
0
0
0
0
0
0
0
0
0
0
0
0
0
0
0
0
0
0
0
0
0
0
0
0
0
0
0
0
0
0
0
0
0
0
0
0
0
0
0
0
0
0
0
0
0
0
0
0
0
0
0
0
0
0
0
0
0
0
0
0
0
0
0
0
0
0
0
0
0
0
0
0
0
0
0
0
0
0
0
0
0
0
0
0
0
0
0
0
0
0
0
0
0
0
0
0
0
0
0
0
0
0
0
0
0
0
0
0
0
0
0
0
0
0
0
0
0
0
0
0
0
0
0
0
0
0
0
0
0
0
0
0
0
0
0
0
0
0
0
0
0
0
0
0
0
0
0
0
0
0
0
0
0
0
0
0
0
0
0
0
0
0
0
0
0
0
0
0
0
0
0
0
0
0
0
0
0
0
0
0
0
0
0
0
0
0
0
0
0
0
0
0
0
0
0
0
0
0
0
0
0
0
0
0
0
0
0
0
0
0
0
0
0
0
0
0
0
0
0
0
0
0
0
0
0
0
0
0
0
0
0
0
0
0
0
0
0
0
0
0
0
0
0
0
0
0
0
0
0
0
0
0
0
0
0
0
0
0
0
0
0
0
0
0
0
0
0
0
0
0
0
0
0
0
0
0
0
0
0
0
0
0
0
0
0
0
0
0
0
0
0
0
0
0
0
0
0
0
0
0
0
0
0
0
0
0
0
0
0
0
0
0
0
0
0
0
0
0
0
0
0
0
0
0
0
0
0
0
0
0
0
0
0
0
0
0
0
0
0
0
0
0
0
0
0
0
0
0
0
0
0
0
0
0
0
0
0
0
0
0
0
0
0
0
0
0
0
0
0
0
0
0
0
0
0
0
0
0
0
0
0
0
0
0
0
0
0
0
0
0
0
0
0
0
0
0
0
0
0
0
0
0
0
0
0
0
0
0
0
0
0
0
0
0
0
0
0
0
0
0
0
0
0
0
0
0
0
0
0
0
0
0
0
0
0
0
0
0
0
0
0
0
0
0
0
0
0
0
0
26932.3
0
0
0
0
0
0
0
0
0
0
0
0
0
0
0
0
0
0
0
0
0
0
0
0
0
0
0
0
0
0
0
0
0
0
0
0
0
0
0
0
0
0
0
0
0
0
0
0
0
0
0
0
0
0
0
0
0
0
0
0
0
0
0
0
0
0
0
0
0
0
0
0
0
0
0
0
0
0
0
0
0
0
0
0
0
0
0
0
0
0
</DataArray>
</PointData>
<Cells>
<DataArray type='Int32' Name='connectivity' format='ascii'>
0
1
2
3
4
5
6
7
8
9
10
11
12
13
14
15
16
17
18
19
20
21
22
23
24
25
26
27
28
29
30
31
32
33
34
35
36
37
38
39
40
41
42
43
44
45
46
47
48
49
50
51
52
53
54
55
56
57
58
59
60
61
62
63
64
65
66
67
68
69
70
71
72
73
74
75
76
77
78
79
80
81
82
83
84
85
86
87
88
89
90
91
92
93
94
95
96
97
98
99
100
101
102
103
104
105
106
107
108
109
110
111
112
113
114
115
116
117
118
119
120
121
122
123
124
125
126
127
128
129
130
131
132
133
134
135
136
137
138
139
140
141
142
143
144
145
146
147
148
149
150
151
152
153
154
155
156
157
158
159
160
161
162
163
164
165
166
167
168
169
170
171
172
173
174
175
176
177
178
179
180
181
182
183
184
185
186
187
188
189
190
191
192
193
194
195
196
197
198
199
200
201
202
203
204
205
206
207
208
209
210
211
212
213
214
215
216
217
218
219
220
221
222
223
224
225
226
227
228
229
230
231
232
233
234
235
236
237
238
239
240
241
242
243
244
245
246
247
248
249
250
251
252
253
254
255
256
257
258
259
260
261
262
263
264
265
266
267
268
269
270
271
272
273
274
275
276
277
278
279
280
281
282
283
284
285
286
287
288
289
290
291
292
293
294
295
296
297
298
299
300
301
302
303
304
305
306
307
308
309
310
311
312
313
314
315
316
317
318
319
320
321
322
323
324
325
326
327
328
329
330
331
332
333
334
335
336
337
338
339
340
341
342
343
344
345
346
347
348
349
350
351
352
353
354
355
356
357
358
359
360
361
362
363
364
365
366
367
368
369
370
371
372
373
374
375
376
377
378
379
380
381
382
383
384
385
386
387
388
389
390
391
392
393
394
395
396
397
398
399
400
401
402
403
404
405
406
407
408
409
410
411
412
413
414
415
416
417
418
419
420
421
422
423
424
425
426
427
428
429
430
431
432
433
434
435
436
437
438
439
440
441
442
443
444
445
446
447
448
449
450
451
452
453
454
455
456
457
458
459
460
461
462
463
464
465
466
467
468
469
470
471
472
473
474
475
476
477
478
479
480
481
482
483
484
485
486
487
488
489
490
491
492
493
494
495
496
497
498
499
500
501
502
503
504
505
506
507
508
509
510
511
512
513
514
515
516
517
518
519
520
521
522
523
524
525
526
527
528
529
530
531
532
533
534
535
536
537
538
539
540
541
542
543
544
545
546
547
548
549
550
551
552
553
554
555
556
557
558
559
560
561
562
563
564
565
566
567
568
569
570
571
572
573
574
575
576
577
578
579
580
581
582
583
584
585
586
587
588
589
590
591
592
593
594
595
596
597
598
599
600
601
602
603
604
605
606
607
608
609
610
611
612
613
614
615
616
617
618
619
620
621
622
623
624
625
626
627
628
629
630
631
632
633
634
635
636
637
638
639
640
641
642
643
644
645
646
647
648
649
650
651
652
653
654
655
656
657
658
659
660
661
662
663
664
665
666
667
668
669
670
671
672
673
674
675
676
677
678
679
680
681
682
683
684
685
686
687
688
689
690
691
692
693
694
695
696
697
698
699
700
701
702
703
704
705
706
707
708
709
710
711
712
713
714
715
716
717
718
719
720
721
722
723
724
725
726
727
728
729
730
731
732
733
734
735
736
737
738
739
740
741
742
743
744
745
746
747
748
749
750
751
752
753
754
755
756
757
758
759
760
761
762
763
764
765
766
767
768
769
770
771
772
773
774
775
776
777
778
779
780
781
782
783
784
785
786
787
788
789
790
791
792
793
794
795
796
797
798
799
800
801
802
803
804
805
806
807
808
809
810
811
812
813
814
815
816
817
818
819
820
821
822
823
824
825
826
827
828
829
830
831
832
833
834
835
836
837
838
839
840
841
842
843
844
845
846
847
848
849
850
851
852
853
854
855
856
857
858
859
860
861
862
863
864
865
866
867
868
869
870
871
872
873
874
875
876
877
878
879
880
881
882
883
884
885
886
887
888
889
890
891
892
893
894
895
896
897
898
899
900
901
902
903
904
905
906
907
908
909
910
911
912
913
914
915
916
917
918
919
920
921
922
923
924
925
926
927
928
929
930
931
932
933
934
935
936
937
938
939
940
941
942
943
944
945
946
947
948
949
950
951
952
953
954
955
956
957
958
959
960
961
962
963
964
965
966
967
968
969
970
971
972
973
974
975
976
977
978
979
980
981
982
983
984
985
986
987
988
989
990
991
992
993
994
995
996
997
998
999
1000
1001
1002
1003
1004
1005
1006
1007
1008
1009
1010
1011
1012
1013
1014
1015
1016
1017
1018
1019
1020
1021
1022
1023
1024
1025
1026
1027
1028