<?xml version='1.0' encoding='UTF-8'?>
<VTKFile xmlns='VTK' byte_order='LittleEndian' version='0.1' type='UnstructuredGrid'>
<UnstructuredGrid>
<Piece NumberOfCells='584' NumberOfPoints='584'>
<Points>
<DataArray NumberOfComponents='3' type='Float32' Name='Position' format='ascii'>
-0.075 -0.075 0
-0.075 -0.05 0
-0.075 -0.025 0
-0.075 0 0
-0.075 0.025 0
-0.075 0.05 0
-0.075 0.075 0
-0.075 0.1 0
-0.075 0.125 0
-0.075 0.15 0
-0.075 0.175 0
-0.075 0.2 0
-0.075 0.225 0
-0.075 0.25 0
-0.075 0.275 0
-0.075 0.3 0
-0.075 0.325 0
-0.075 0.35 0
-0.075 0.375 0
-0.075 0.4 0
-0.075 0.425 0
-0.075 0.45 0
-0.075 0.475 0
-0.075 0.5 0
-0.075 0.525 0
-0.075 0.55 0
-0.075 0.575 0
-0.075 0.6 0
-0.05 -0.075 0
-0.05 -0.05 0
-0.05 -0.025 0
-0.05 0 0
-0.05 0.025 0
-0.05 0.05 0
-0.05 0.075 0
-0.05 0.1 0
-0.05 0.125 0
-0.05 0.15 0
-0.05 0.175 0
-0.05 0.2 0
-0.05 0.225 0
-0.05 0.25 0
-0.05 0.275 0
-0.05 0.3 0
-0.05 0.325 0
-0.05 0.35 0
-0.05 0.375 0
-0.05 0.4 0
-0.05 0.425 0
-0.05 0.45 0
-0.05 0.475 0
-0.05 0.5 0
-0.05 0.525 0
-0.05 0.55 0
-0.05 0.575 0
-0.05 0.6 0
-0.025 -0.075 0
-0.025 -0.05 0
-0.025 -0.025 0
-0.025 0 0
-0.025 0.025 0
-0.025 0.05 0
-0.025 0.075 0
-0.025 0.1 0
-0.025 0.125 0
-0.025 0.15 0
-0.025 0.175 0
-0.025 0.2 0
-0.025 0.225 0
-0.025 0.25 0
-0.025 0.275 0
-0.025 0.3 0
-0.025 0.325 0
-0.025 0.35 0
-0.025 0.375 0
-0.025 0.4 0
-0.025 0.425 0
-0.025 0.45 0
-0.025 0.475 0
-0.025 0.5 0
-0.025 0.525 0
-0.025 0.55 0
-0.025 0.575 0
-0.025 0.6 0
0 -0.075 0
0 -0.05 0
0 -0.025 0
0 0 0
0 0.025 0
0 0.05 0
0 0.075 0
0 0.1 0
0 0.125 0
0 0.15 0
0 0.175 0
0 0.2 0
0 0.225 0
0 0.25 0
0 0.275 0
0 0.3 0
0 0.325 0
0 0.35 0
0 0.375 0
0 0.4 0
0 0.425 0
0 0.45 0
0 0.475 0
0 0.5 0
0 0.525 0
0 0.55 0
0 0.575 0
0 0.6 0
0.025 -0.075 0
0.025 -0.05 0
0.025 -0.025 0
0.025 0 0
-806709 495289 0
-34.9412 -82.0911 0
-98.2456 38.2794 0
55.1916 -3.7539 0
-53.7252 -49.2518 0
-3478.12 3484.85 0
205.399 -33.9062 0
-139.316 -21.4332 0
17.7084 -85.4893 0
-22.5672 -57.2827 0
-41.3704 -56.7327 0
73.7229 -57.2971 0
-2787.57 -2.43106 0
48.5139 -54.3535 0
43.5473 -612.051 0
-67.9275 54.1468 0
9.20892 2.33242 0
717.877 96.7303 0
109.603 -7.2267 0
161.162 -21.1103 0
0.05 -0.075 0
0.05 -0.05 0
0.05 -0.025 0
0.05 0 0
-0.0143755 71.4749 0
-142.135 -346.927 0
134.628 324.76 0
-113.39 -206.908 0
125.693 122.094 0
-3080.04 4564.76 0
82.2468 -67.0442 0
-56.3764 69.3741 0
96.5257 -81.8515 0
-7.18486 -46.3633 0
-3.89774 74.3652 0
196.972 8.05943 0
-21.7412 -21.9501 0
-57.2161 44.8279 0
-2.53007 -10.561 0
50.0061 -22.4103 0
-1.81894 -13.5228 0
-51.3516 -31.3137 0
-30.7174 31.9107 0
108399 5378.42 0
0.075 -0.075 0
0.075 -0.05 0
0.075 -0.025 0
0.075 0 0
11.891 74.3168 0
40.1554 -270.258 0
-34.9116 257.255 0
-4.01304 -218.634 0
-13.1986 151.539 0
48.9254 -16.1603 0
-171.089 -32.1806 0
904.014 -1350.2 0
-5456.9 -833.196 0
-20.4716 -22.8703 0
-14.6034 -80.0187 0
-7.96488 -33.3483 0
13.6377 0.132865 0
-26.9914 -32.9973 0
17.4869 19.1145 0
-2.04801 -9.60767 0
-1227.41 99.3551 0
1296.72 -98.061 0
-18.5089 -7.17171 0
5.27691 15.7041 0
0.1 -0.075 0
0.1 -0.05 0
0.1 -0.025 0
0.1 0 0
10.5685 68.8673 0
127.516 -216.495 0
-110.401 194.685 0
542.757 -298.436 0
-136.614 154.857 0
-129.894 -8.3216 0
71.3288 -70.3479 0
-10.4161 -29.213 0
-18.4531 -29.0294 0
-115.298 99.0231 0
41.2006 -37.3653 0
24.5914 -36.858 0
43.7274 24.8412 0
-32.5311 -25.5752 0
-695.564 -127.225 0
-108408 -5362.94 0
35.7519 5.56659 0
-7.31327 -7.20578 0
9.72099 58.1336 0
-17.5444 -10.7061 0
0.125 -0.075 0
0.125 -0.05 0
0.125 -0.025 0
0.125 0 0
4.81305 66.666 0
120.115 -139.184 0
-90.9075 106.242 0
36.5966 -95.4776 0
1.97136 -232.565 0
-54.8882 -11.243 0
1.45794 -24.2123 0
-37.6786 -20.8194 0
187.53 -242.342 0
59.6481 -12.6394 0
3.18038 -8.86806 0
7.41339 -2.29151 0
4.33763 -3.68155 0
-9.38371 1.29318 0
7.13885 2.11422 0
5.05352 -41.4369 0
101.469 197.232 0
-79.5378 -302.932 0
-11.9574 -29.4609 0
17.056 25.3053 0
0.15 -0.075 0
0.15 -0.05 0
0.15 -0.025 0
0.15 0 0
5.1618 79.4739 0
158.142 -146.731 0
-65.9706 47.0782 0
-25.8831 -91.1978 0
-106.439 -4.56447 0
-132.595 -71.067 0
71.1935 35.8974 0
27.5544 4.36426 0
-15.8831 -3.74855 0
-41.0606 -10.8438 0
0.154024 -1.32021 0
2.40938 -10.1094 0
10.7099 -11.0173 0
31.6817 -69.6466 0
-2.47114 8.88361 0
4.51138 8.66486 0
11.2263 1.54134 0
-5.51044 5.99964 0
15.1273 28.601 0
-16.9584 12.6241 0
0.175 -0.075 0
0.175 -0.05 0
0.175 -0.025 0
0.175 0 0
6.78216 103.949 0
163.294 -73.5091 0
-551.781 34.1062 0
-92.2921 48.1697 0
-40.5403 -5.04568 0
42.1361 -121.673 0
-4.722 -14.1488 0
-5.4258 -5.64426 0
-22.2509 -111.855 0
-39.9075 52.5269 0
5.75847 -0.986356 0
14.2837 -8.04478 0
5.36989 -4.51812 0
9.52404 -30.3181 0
-78.9184 139.183 0
10.513 10.8256 0
15.9379 11.0027 0
31.1129 -6.93791 0
-3.70092 11.6673 0
31.2746 -26.8565 0
0.2 -0.075 0
0.2 -0.05 0
0.2 -0.025 0
0.2 0 0
8.64295 147.45 0
15937.2 2958.54 0
-35.5545 -52.219 0
1.15662e+06 1.50323e+06 0
64.9618 58.001 0
13.0595 35.3592 0
-2.80399 -12.3693 0
-6.7553 -11.4314 0
-1469.71 310.903 0
62.9218 -30.1153 0
32.2602 5.18243 0
15.0376 -19.61 0
44.5582 -6.17328 0
30.8571 -3.90822 0
38.8621 10.6459 0
25.0943 6.89053 0
-60.2437 -13.2015 0
18.2826 4.26768 0
3.48698 12.9362 0
0.626514 13.0218 0
0.225 -0.075 0
0.225 -0.05 0
0.225 -0.025 0
0.225 0 0
11.9213 285.163 0
-183.44 -33.3487 0
50.2686 -57.8428 0
34.0306 10.7681 0
-159.837 241.925 0
-488.978 123.432 0
2156.51 28.1427 0
1446.24 -283.356 0
13.7747 -13.2778 0
6.24946 1.26459 0
33.5337 -0.184509 0
32.602 -0.392524 0
18.8983 0.0785363 0
-31856.3 19714.3 0
12.7996 46.2907 0
-14024.5 -3740.82 0
-331.084 21.7203 0
10.9833 2.45869 0
5.51163 -0.642815 0
1.95884 18.9773 0
0.25 -0.075 0
0.25 -0.05 0
0.25 -0.025 0
0.25 0 0
35.6882 511.215 0
27.5783 -1.86902 0
436.572 -65.5937 0
29.315 -12.2712 0
201.751 -408.485 0
-1.15633e+06 -1.50326e+06 0
44.7831 75.1801 0
44.294 22.7798 0
34.4492 -5.85843 0
16.7818 -35.2144 0
19.5723 -16.2019 0
25.2698 -13.502 0
38475 22599.6 0
19.1467 -9.19497 0
9.52456 -6.08602 0
12.7762 -1.80605 0
11432.5 -7041.42 0
0.41051 8.60634 0
340.007 -13.1621 0
14031.7 3757.31 0
0.275 -0.075 0
0.275 -0.05 0
0.275 -0.025 0
0.275 0 0
0.3 -0.075 0
0.3 -0.05 0
0.3 -0.025 0
0.3 0 0
0.325 -0.075 0
0.325 -0.05 0
0.325 -0.025 0
0.325 0 0
0.35 -0.075 0
0.35 -0.05 0
0.35 -0.025 0
0.35 0 0
0.375 -0.075 0
0.375 -0.05 0
0.375 -0.025 0
0.375 0 0
0.4 -0.075 0
0.4 -0.05 0
0.4 -0.025 0
0.4 0 0
0.425 -0.075 0
0.425 -0.05 0
0.425 -0.025 0
0.425 0 0
0.45 -0.075 0
0.45 -0.05 0
0.45 -0.025 0
0.45 0 0
0.475 -0.075 0
0.475 -0.05 0
0.475 -0.025 0
0.475 0 0
0.5 -0.075 0
0.5 -0.05 0
0.5 -0.025 0
0.5 0 0
0.525 -0.075 0
0.525 -0.05 0
0.525 -0.025 0
0.525 0 0
0.55 -0.075 0
0.55 -0.05 0
0.55 -0.025 0
0.55 0 0
0.575 -0.075 0
0.575 -0.05 0
0.575 -0.025 0
0.575 0 0
0.6 -0.075 0
0.6 -0.05 0
0.6 -0.025 0
0.6 0 0
0.625 -0.075 0
0.625 -0.05 0
0.625 -0.025 0
0.625 0 0
0.65 -0.075 0
0.65 -0.05 0
0.65 -0.025 0
0.65 0 0
0.675 -0.075 0
0.675 -0.05 0
0.675 -0.025 0
0.675 0 0
0.7 -0.075 0
0.7 -0.05 0
0.7 -0.025 0
0.7 0 0
0.725 -0.075 0
0.725 -0.05 0
0.725 -0.025 0
0.725 0 0
0.75 -0.075 0
0.75 -0.05 0
0.75 -0.025 0
0.75 0 0
0.775 -0.075 0
0.775 -0.05 0
0.775 -0.025 0
0.775 0 0
0.8 -0.075 0
0.8 -0.05 0
0.8 -0.025 0
0.8 0 0
0.825 -0.075 0
0.825 -0.05 0
0.825 -0.025 0
0.825 0 0
0.85 -0.075 0
0.85 -0.05 0
0.85 -0.025 0
0.85 0 0
0.875 -0.075 0
0.875 -0.05 0
0.875 -0.025 0
0.875 0 0
0.9 -0.075 0
0.9 -0.05 0
0.9 -0.025 0
0.9 0 0
0.925 -0.075 0
0.925 -0.05 0
0.925 -0.025 0
0.925 0 0
0.95 -0.075 0
0.95 -0.05 0
0.95 -0.025 0
0.95 0 0
0.975 -0.075 0
0.975 -0.05 0
0.975 -0.025 0
0.975 0 0
1 -0.075 0
1 -0.05 0
1 -0.025 0
1 0 0
1.025 -0.075 0
1.025 -0.05 0
1.025 -0.025 0
1.025 0 0
1.025 0.025 0
1.025 0.05 0
1.025 0.075 0
1.025 0.1 0
1.025 0.125 0
1.025 0.15 0
1.025 0.175 0
1.025 0.2 0
1.025 0.225 0
1.025 0.25 0
1.025 0.275 0
1.025 0.3 0
1.025 0.325 0
1.025 0.35 0
1.025 0.375 0
1.025 0.4 0
1.025 0.425 0
1.025 0.45 0
1.025 0.475 0
1.025 0.5 0
1.025 0.525 0
1.025 0.55 0
1.025 0.575 0
1.025 0.6 0
1.05 -0.075 0
1.05 -0.05 0
1.05 -0.025 0
1.05 0 0
1.05 0.025 0
1.05 0.05 0
1.05 0.075 0
1.05 0.1 0
1.05 0.125 0
1.05 0.15 0
1.05 0.175 0
1.05 0.2 0
1.05 0.225 0
1.05 0.25 0
1.05 0.275 0
1.05 0.3 0
1.05 0.325 0
1.05 0.35 0
1.05 0.375 0
1.05 0.4 0
1.05 0.425 0
1.05 0.45 0
1.05 0.475 0
1.05 0.5 0
1.05 0.525 0
1.05 0.55 0
1.05 0.575 0
1.05 0.6 0
1.075 -0.075 0
1.075 -0.05 0
1.075 -0.025 0
1.075 0 0
1.075 0.025 0
1.075 0.05 0
1.075 0.075 0
1.075 0.1 0
1.075 0.125 0
1.075 0.15 0
1.075 0.175 0
1.075 0.2 0
1.075 0.225 0
1.075 0.25 0
1.075 0.275 0
1.075 0.3 0
1.075 0.325 0
1.075 0.35 0
1.075 0.375 0
1.075 0.4 0
1.075 0.425 0
1.075 0.45 0
1.075 0.475 0
1.075 0.5 0
1.075 0.525 0
1.075 0.55 0
1.075 0.575 0
1.075 0.6 0
1.1 -0.075 0
1.1 -0.05 0
1.1 -0.025 0
1.1 0 0
1.1 0.025 0
1.1 0.05 0
1.1 0.075 0
1.1 0.1 0
1.1 0.125 0
1.1 0.15 0
1.1 0.175 0
1.1 0.2 0
1.1 0.225 0
1.1 0.25 0
1.1 0.275 0
1.1 0.3 0
1.1 0.325 0
1.1 0.35 0
1.1 0.375 0
1.1 0.4 0
1.1 0.425 0
1.1 0.45 0
1.1 0.475 0
1.1 0.5 0
1.1 0.525 0
1.1 0.55 0
1.1 0.575 0
1.1 0.6 0
</DataArray>
</Points>
<PointData>
<DataArray NumberOfComponents='1' type='Int32' Name='ParticleType' format='ascii'>
2
2
2
2
2
2
2
2
2
2
2
2
2
2
2
2
2
2
2
2
2
2
2
2
2
2
1
1
2
2
2
2
2
2
2
2
2
2
2
2
2
2
2
2
2
2
2
2
2
2
2
2
2
2
1
1
2
2
1
1
1
1
1
1
1
1
1
1
1
1
1
1
1
1
1
1
1
1
1
1
1
1
1
1
2
2
1
1
1
1
1
1
1
1
1
1
1
1
1
1
1
1
1
1
1
1
1
1
1
1
1
1
2
2
1
1
0
0
0
0
0
0
0
0
0
0
0
0
0
0
0
0
0
0
0
0
2
2
1
1
0
0
0
0
0
0
0
0
0
0
0
0
0
0
0
0
0
0
0
0
2
2
1
1
0
0
0
0
0
0
0
0
0
0
0
0
0
0
0
0
0
0
0
0
2
2
1
1
0
0
0
0
0
0
0
0
0
0
0
0
0
0
0
0
0
0
0
0
2
2
1
1
0
0
0
0
0
0
0
0
0
0
0
0
0
0
0
0
0
0
0
0
2
2
1
1
0
0
0
0
0
0
0
0
0
0
0
0
0
0
0
0
0
0
0
0
2
2
1
1
0
0
0
0
0
0
0
0
0
0
0
0
0
0
0
0
0
0
0
0
2
2
1
1
0
0
0
0
0
0
0
0
0
0
0
0
0
0
0
0
0
0
0
0
2
2
1
1
0
0
0
0
0
0
0
0
0
0
0
0
0
0
0
0
0
0
0
0
2
2
1
1
0
0
0
0
0
0
0
0
0
0
0
0
0
0
0
0
0
0
0
0
2
2
1
1
2
2
1
1
2
2
1
1
2
2
1
1
2
2
1
1
2
2
1
1
2
2
1
1
2
2
1
1
2
2
1
1
2
2
1
1
2
2
1
1
2
2
1
1
2
2
1
1
2
2
1
1
2
2
1
1
2
2
1
1
2
2
1
1
2
2
1
1
2
2
1
1
2
2
1
1
2
2
1
1
2
2
1
1
2
2
1
1
2
2
1
1
2
2
1
1
2
2
1
1
2
2
1
1
2
2
1
1
2
2
1
1
2
2
1
1
2
2
1
1
1
1
1
1
1
1
1
1
1
1
1
1
1
1
1
1
1
1
1
1
1
1
1
1
2
2
1
1
1
1
1
1
1
1
1
1
1
1
1
1
1
1
1
1
1
1
1
1
1
1
1
1
2
2
2
2
2
2
2
2
2
2
2
2
2
2
2
2
2
2
2
2
2
2
2
2
2
2
1
1
2
2
2
2
2
2
2
2
2
2
2
2
2
2
2
2
2
2
2
2
2
2
2
2
2
2
1
1
</DataArray>
<DataArray NumberOfComponents='1' type='Float32' Name='Velocity' format='ascii'>
0
0
0
0
0
0
0
0
0
0
0
0
0
0
0
0
0
0
0
0
0
0
0
0
0
0
0
0
0
0
0
0
0
0
0
0
0
0
0
0
0
0
0
0
0
0
0
0
0
0
0
0
0
0
0
0
0
0
0
0
0
0
0
0
0
0
0
0
0
0
0
0
0
0
0
0
0
0
0
0
0
0
0
0
0
0
0
0
0
0
0
0
0
0
0
0
0
0
0
0
0
0
0
0
0
0
0
0
0
0
0
0
0
0
0
0
661968
68.9358
71.7205
39.8842
56.155
3450.14
147.398
100.257
68.2852
49.9506
55.2643
70.2193
1958.98
56.7481
437.784
57.3264
8.53386
507.683
77.7166
114.841
0
0
0
0
42.5797
268.73
239.328
171.701
118.149
3861.18
79.1183
57.4249
93.6537
40.0116
45.1682
138.329
27.2876
47.0152
14.7144
41.8689
16.7818
46.4467
26.4164
76972.5
0
0
0
0
45.3215
198.038
174.565
160.411
99.6426
38.8873
123.814
1146.97
3880.33
27.3156
64.2095
31.1093
11.8652
35.8256
13.697
14.046
863.683
913.07
17.9596
5.15491
0
0
0
0
41.4083
181.779
150.451
437.99
139.69
92.1385
75.4126
28.598
30.4397
102.282
44.675
37.2676
32.3047
34.0273
497.997
76979.5
25.2316
13.4315
34.1665
19.3763
0
0
0
0
39.3714
133.92
92.6004
78.3356
170.453
41.4235
24.126
34.3293
220.839
44.778
13.555
10.1569
10.2034
9.18467
7.54033
36.496
149.388
228.336
29.2494
16.0888
0
0
0
0
48.2602
155.654
53.0034
73.3559
75.5285
109.241
53.0396
19.6834
14.907
32.5136
8.08327
14.3611
16.6593
60.3509
2.11124
3.24281
9.9091
5.05421
16.5462
12.1383
0
0
0
0
65.2927
128.157
387.334
70.2386
30.4828
98.4571
17.3829
11.7578
87.1762
40.9895
8.77111
16.1971
10.9807
29.2516
106.297
7.24165
11.023
24.8775
2.88815
34.4691
0
0
0
0
95.5202
11365.5
50.2358
1.33007e+06
56.5815
19.887
15.9258
15.9128
1052.9
52.3807
22.7741
23.3987
33.2122
23.7075
27.1424
17.629
45.5224
13.3764
2.89741
1.84252
0
0
0
0
191.147
132.002
58.9813
23.6347
197.612
352.177
1515.47
1035.43
19.0112
7.55102
24.4835
23.9138
14.913
26679.6
27.1554
10429.6
236.256
9.29546
8.60328
6.13968
0
0
0
0
348.824
20.8099
309.654
25.6284
325.732
1.32998e+06
55.286
32.1157
26.4748
33.9109
22.9567
24.1916
32377.1
19.066
13.1977
12.2125
9566.88
1.13322
242.438
10433.1
0
0
0
0
0
0
0
0
0
0
0
0
0
0
0
0
0
0
0
0
0
0
0
0
0
0
0
0
0
0
0
0
0
0
0
0
0
0
0
0
0
0
0
0
0
0
0
0
0
0
0
0
0
0
0
0
0
0
0
0
0
0
0
0
0
0
0
0
0
0
0
0
0
0
0
0
0
0
0
0
0
0
0
0
0
0
0
0
0
0
0
0
0
0
0
0
0
0
0
0
0
0
0
0
0
0
0
0
0
0
0
0
0
0
0
0
0
0
0
0
0
0
0
0
0
0
0
0
0
0
0
0
0
0
0
0
0
0
0
0
0
0
0
0
0
0
0
0
0
0
0
0
0
0
0
0
0
0
0
0
0
0
0
0
0
0
0
0
0
0
0
0
0
0
0
0
0
0
0
0
0
0
0
0
0
0
0
0
0
0
0
0
0
0
0
0
0
0
0
0
0
0
0
0
0
0
0
0
0
0
0
0
0
0
0
0
0
0
0
0
0
0
0
0
0
0
0
0
0
0
0
0
</DataArray>
<DataArray NumberOfComponents='1' type='Float32' Name='pressure' format='ascii'>
0
0
0
0
0
0
0
0
0
0
0
0
0
0
0
0
0
0
0
0
0
0
0
0
0
0
0
0
0
0
0
0
0
0
0
0
0
0
0
0
0
0
0
0
0
0
0
0
0
0
0
0
0
0
0
0
0
0
0
0
0
0
0
0
0
0
0
0
0
0
0
0
0
0
0
0
0
0
0
0
0
0
0
0
0
0
0
0
0
0
0
0
0
0
0
0
0
0
0
0
0
0
0
0
0
0
0
0
0
0
0
0
0
0
0
0
0
0
0
0
0
0
0
0
0
0
0
0
0
0
0
0
0
0
0
0
0
0
0
0
0
0
0
0
0
0
0
0
0
0
0
0
0
0
0
0
0
0
0
0
0
0
0
0
0
0
0
0
0
0
0
0
0
0
0
0
0
0
0
0
0
0
0
0
0
0
0
0
0
0
0
0
0
0
0
0
0
0
0
0
0
0
0
0
0
0
0
0
0
0
0
0
0
0
0
0
0
0
0
0
0
0
0
0
0
0
0
0
0
0
0
0
0
0
0
0
0
0
0
0
0
0
0
0
0
0
0
0
0
0
0
0
0
0
0
0
0
0
0
0
0
0
0
0
0
0
0
0
0
0
0
0
0
0
0
0
0
0
0
0
0
0
0
0
0
0
0
0
0
0
0
0
0
0
0
0
0
0
0
0
0
0
0
0
0
0
0
0
0
0
0
0
0
0
0
0
0
0
0
0
0
0
0
0
0
0
0
0
0
0
0
0
0
0
0
0
0
0
0
0
0
0
0
0
0
0
0
0
0
0
0
0
0
0
0
0
0
0
0
0
0
0
0
0
0
0
0
0
0
0
0
0
0
0
0
0
0
0
0
0
0
0
0
0
0
0
0
0
0
0
0
0
0
0
0
0
0
0
0
0
0
0
0
0
0
0
0
0
0
0
0
0
0
0
0
0
0
0
0
0
0
0
0
0
0
0
0
0
0
0
0
0
0
0
0
0
0
0
0
0
0
0
0
0
0
0
0
0
0
0
0
0
0
0
0
0
0
0
0
0
0
0
0
0
0
0
0
0
0
0
0
0
0
0
0
0
0
0
0
0
0
0
0
0
0
0
0
0
0
0
0
0
0
0
0
0
0
0
0
0
0
0
0
0
0
0
0
0
0
0
0
0
0
0
0
0
0
0
0
0
0
0
0
0
0
0
0
0
0
0
0
0
0
0
0
0
0
0
0
0
0
0
0
0
0
0
0
0
0
0
0
0
0
0
0
0
0
0
0
0
0
0
0
0
0
0
0
0
0
0
0
0
0
0
0
0
0
0
0
0
0
0
0
0
</DataArray>
</PointData>
<Cells>
<DataArray type='Int32' Name='connectivity' format='ascii'>
0
1
2
3
4
5
6
7
8
9
10
11
12
13
14
15
16
17
18
19
20
21
22
23
24
25
26
27
28
29
30
31
32
33
34
35
36
37
38
39
40
41
42
43
44
45
46
47
48
49
50
51
52
53
54
55
56
57
58
59
60
61
62
63
64
65
66
67
68
69
70
71
72
73
74
75
76
77
78
79
80
81
82
83
84
85
86
87
88
89
90
91
92
93
94
95
96
97
98
99
100
101
102
103
104
105
106
107
108
109
110
111
112
113
114
115
116
117
118
119
120
121
122
123
124
125
126
127
128
129
130
131
132
133
134
135
136
137
138
139
140
141
142
143
144
145
146
147
148
149
150
151
152
153
154
155
156
157
158
159
160
161
162
163
164
165
166
167
168
169
170
171
172
173
174
175
176
177
178
179
180
181
182
183
184
185
186
187
188
189
190
191
192
193
194
195
196
197
198
199
200
201
202
203
204
205
206
207
208
209
210
211
212
213
214
215
216
217
218
219
220
221
222
223
224
225
226
227
228
229
230
231
232
233
234
235
236
237
238
239
240
241
242
243
244
245
246
247
248
249
250
251
252
253
254
255
256
257
258
259
260
261
262
263
264
265
266
267
268
269
270
271
272
273
274
275
276
277
278
279
280
281
282
283
284
285
286
287
288
289
290
291
292
293
294
295
296
297
298
299
300
301
302
303
304
305
306
307
308
309
310
311
312
313
314
315
316
317
318
319
320
321
322
323
324
325
326
327
328
329
330
331
332
333
334
335
336
337
338
339
340
341
342
343
344
345
346
347
348
349
350
351
352
353
354
355
356
357
358
359
360
361
362
363
364
365
366
367
368
369
370
371
372
373
374
375
376
377
378
379
380
381
382
383
384
385
386
387
388
389
390
391
392
393
394
395
396
397
398
399
400
401
402
403
404
405
406
407
408
409
410
411
412
413
414
415
416
417
418
419
420
421
422
423
424
425
426
427
428
429
430
431
432
433
434
435
436
437
438
439
440
441
442
443
444
445
446
447
448
449
450
451
452
453
454
455
456
457
458
459
460
461
462
463
464
465
466
467
468
469
470
471
472
473
474
475
476
477
478
479
480
481
482
483
484
485
486
487
488
489
490
491
492
493
494
495
496
497
498
499
500
501
502
503
504
505
506
507
508
509
510
511
512
513
514
515
516
517
518
519
520
521
522
523
524
525
526
527
528
529
530
531
532
533
534
535
536
537
538
539
540
541
542
543
544
545
546
547
548
549
550
551
552
553
554
555
556
557
558
559
560
561
562
563
564
565
566
567
568
569
570
571
572
573
574
575
576
577
578
579
580
581
582
583
</DataArray>
<DataArray type='Int32' Name='offsets' format='ascii'>
1
2
3
4
5
6
7
8
9
10
11
12
13
14
15
16
17
18
19
20
21
22
23
24
25
26
27
28
29
30
31
32
33
34
35
36
37
38
39
40
41
42
43
44
45
46
47
48
49
50
51
52
53
54
55
56
57
58
59
60
61
62
63
64
65
66
67
68
69
70
71
72
73
74
75
76
77
78
79
80
81
82
83
84
85
86
87
88
89
90
91
92
93
94
95
96
97
98
99
100
101
102
103
104
105
106
107
108
109
110
111
112
113
114
115
116
117
118
119
120
121
122
123
124
125
126
127
128
129
130
131
132
133
134
135
136
137
138
139
140
141
142
143
144
145
146
147
148
149
150
151
152
153
154
155
156
157
158
159
160
161
162
163
164
165
166
167
168
169
170
171
172
173
174
175
176
177
178
179
180
181
182
183
184
185
186
187
188
189
190
191
192
193
194
195
196
197
198
199
200
201
202
203
204
205
206
207
208
209
210
211
212
213
214
215
216
217
218
219
220
221
222
223
224
225
226
227
228
229
230
231
232
233
234
235
236
237
238
239
240
241
242
243
244
245
246
247
248
249
250
251
252
253
254
255
256
257
258
259
260
261
262
263
264
265
266
267
268
269
270
271
272
273
274
275
276
277
278
279
280
281
282
283
284
285
286
287
288
289
290
291
292
293
294
295
296
297
298
299
300
301
302
303
304
305
306
307
308
309
310
311
312
313
314
315
316
317
318
319
320
321
322
323
324
325
326
327
328
329
330
331
332
333
334
335
336
337
338
339
340
341
342
343
344
345
346
347
348
349
350
351
352
353
354
355
356
357
358
359
360
361
362
363
364
365
366
367
368
369
370
371
372
373
374
375
376
377
378
379
380
381
382
383
384
385
386
387
388
389
390
391
392
393
394
395
396
397
398
399
400
401
402
403
404
405
406
407
408
409
410
411
412
413
414
415
416
417
418
419
420
421
422
423
424
425
426
427
428
429
430
431
432
433
434
435
436
437
438
439
440
441
442
443
444
445
446
447
448
449
450
451
452
453
454
455
456
457
458
459
460
461
462
463
464
465
466
467
468
469
470
471
472
473
474
475
476
477
478
479
480
481
482
483
484
485
486
487
488
489
490
491
492
493
494
495
496
497
498
499
500
501
502
503
504
505
506
507
508
509
510
511
512
513
514
515
516
517
518
519
520
521
522
523
524
525
526
527
528
529
530
531
532
533
534
535
536
537
538
539
540
541
542
543
544
545
546
547
548
549
550
551
552
553
554
555
556
557
558
559
560
561
562
563
564
565
566
567
568
569
570
571
572
573
574
575
576
577
578
579
580
581
582
583
584
</DataArray>
<DataArray type='UInt8' Name='types' format='ascii'>
1
1
1
1
1
1
1
1
1
1
1
1
1
1
1
1
1
1
1
1
1
1
1
1
1
1
1
1
1
1
1
1
1
1
1
1
1
1
1
1
1
1
1
1
1
1
1
1
1
1
1
1
1
1
1
1
1
1
1
1
1
1
1
1
1
1
1
1
1
1
1
1
1
1
1
1
1
1
1
1
1
1
1
1
1
1
1
1
1
1
1
1
1
1
1
1
1
1
1
1
1
1
1
1
1
1
1
1
1
1
1
1
1
1
1
1
1
1
1
1
1
1
1
1
1
1
1
1
1
1
1
1
1
1
1
1
1
1
1
1
1
1
1
1
1
1
1
1
1
1
1
1
1
1
1
1
1
1
1
1
1
1
1
1
1
1
1
1
1
1
1
1
1
1
1
1
1
1
1
1
1
1
1
1
1
1
1
1
1
1
1
1
1
1
1
1
1
1
1
1
1
1
1
1
1
1
1
1
1
1
1
1
1
1
1
1
1
1
1
1
1
1
1
1
1
1
1
1
1
1
1
1
1
1
1
1
1
1
1
1
1
1
1
1
1
1
1
1
1
1
1
1
1
1
1
1
1
1
1
1
1
1
1
1
1
1
1
1
1
1
1
1
1
1
1
1
1
1
1
1
1
1
1
1
1
1
1
1
1
1
1
1
1
1
1
1
1
1
1
1
1
1
1
1
1
1
1
1
1
1
1
1
1
1
1
1
1
1
1
1
1
1
1
1
1
1
1
1
1
1
1
1
1
1
1
1
1
1
1
1
1
1
1
1
1
1
1
1
1
1
1
1
1
1
1
1
1
1
1
1
1
1
1
1
1
1
1
1
1
1
1
1
1
1
1
1
1
1
1
1
1
1
1
1
1
1
1
1
1
1
1
1
1
1
1
1
1
1
1
1
1
1
1
1
1
1
1
1
1
1
1
1
1
1
1
1
1
1
1
1
1
1
1
1
1
1
1
1
1
1
1
1
1
1
1
1
1
1
1
1
1
1
1
1
1
1
1
1
1
1
1
1
1
1
1
1
1
1
1
1
1
1
1
1
1
1
1
1
1
1
1
1
1
1
1
1
1
1
1
1
1
1
1
1
1
1
1
1
1
1
1
1
1
1
1
1
1
1
1
1
1
1
1
1
1
1
1
1
1
1
1
1
1
1
1
1
1
1
1
1
1
1
1
1
1
1
1
1
1
1
1
1
1
1
1
1
1
1
1
1
1
1
1
1
1
1
1
1
1
1
1
1
1
1
1
1
1
1
1
1
1
1
1
1
1
1
1
1
1
1
1
1
1
1
1
1
1
1
1
1
1
1
1
1
</DataArray>
</Cells>
</Piece>
</UnstructuredGrid>
</VTKFile>
