<?xml version='1.0' encoding='UTF-8'?>
<VTKFile xmlns='VTK' byte_order='LittleEndian' version='0.1' type='UnstructuredGrid'>
<UnstructuredGrid>
<Piece NumberOfCells='584' NumberOfPoints='584'>
<Points>
<DataArray NumberOfComponents='3' type='Float32' Name='Position' format='ascii'>
-0.075 -0.075 0
-0.075 -0.05 0
-0.075 -0.025 0
-0.075 0 0
-0.075 0.025 0
-0.075 0.05 0
-0.075 0.075 0
-0.075 0.1 0
-0.075 0.125 0
-0.075 0.15 0
-0.075 0.175 0
-0.075 0.2 0
-0.075 0.225 0
-0.075 0.25 0
-0.075 0.275 0
-0.075 0.3 0
-0.075 0.325 0
-0.075 0.35 0
-0.075 0.375 0
-0.075 0.4 0
-0.075 0.425 0
-0.075 0.45 0
-0.075 0.475 0
-0.075 0.5 0
-0.075 0.525 0
-0.075 0.55 0
-0.075 0.575 0
-0.075 0.6 0
-0.05 -0.075 0
-0.05 -0.05 0
-0.05 -0.025 0
-0.05 0 0
-0.05 0.025 0
-0.05 0.05 0
-0.05 0.075 0
-0.05 0.1 0
-0.05 0.125 0
-0.05 0.15 0
-0.05 0.175 0
-0.05 0.2 0
-0.05 0.225 0
-0.05 0.25 0
-0.05 0.275 0
-0.05 0.3 0
-0.05 0.325 0
-0.05 0.35 0
-0.05 0.375 0
-0.05 0.4 0
-0.05 0.425 0
-0.05 0.45 0
-0.05 0.475 0
-0.05 0.5 0
-0.05 0.525 0
-0.05 0.55 0
-0.05 0.575 0
-0.05 0.6 0
-0.025 -0.075 0
-0.025 -0.05 0
-0.025 -0.025 0
-0.025 0 0
-0.025 0.025 0
-0.025 0.05 0
-0.025 0.075 0
-0.025 0.1 0
-0.025 0.125 0
-0.025 0.15 0
-0.025 0.175 0
-0.025 0.2 0
-0.025 0.225 0
-0.025 0.25 0
-0.025 0.275 0
-0.025 0.3 0
-0.025 0.325 0
-0.025 0.35 0
-0.025 0.375 0
-0.025 0.4 0
-0.025 0.425 0
-0.025 0.45 0
-0.025 0.475 0
-0.025 0.5 0
-0.025 0.525 0
-0.025 0.55 0
-0.025 0.575 0
-0.025 0.6 0
0 -0.075 0
0 -0.05 0
0 -0.025 0
0 0 0
0 0.025 0
0 0.05 0
0 0.075 0
0 0.1 0
0 0.125 0
0 0.15 0
0 0.175 0
0 0.2 0
0 0.225 0
0 0.25 0
0 0.275 0
0 0.3 0
0 0.325 0
0 0.35 0
0 0.375 0
0 0.4 0
0 0.425 0
0 0.45 0
0 0.475 0
0 0.5 0
0 0.525 0
0 0.55 0
0 0.575 0
0 0.6 0
0.025 -0.075 0
0.025 -0.05 0
0.025 -0.025 0
0.025 0 0
-321555 197425 0
-13.9173 -30.2792 0
-38.9546 17.6609 0
21.9111 0.928713 0
-21.2966 -17.0857 0
-1379.04 1384.17 0
81.4505 -10.9686 0
-55.2241 -6.00836 0
7.02425 -31.3639 0
-8.92602 -20.1685 0
-16.363 -19.9363 0
29.1777 -20.1431 0
-1102.87 1.57912 0
19.2099 -18.947 0
17.278 -240.095 0
-26.5254 23.7608 0
3.66925 3.52661 0
284.402 40.9031 0
43.6151 -0.231598 0
64.2502 -5.6985 0
0.05 -0.075 0
0.05 -0.05 0
0.05 -0.025 0
0.05 0 0
0.024071 31.2365 0
-56.6251 -135.84 0
53.694 131.899 0
-44.9753 -79.6699 0
49.8449 50.8626 0
-1219.9 1810.44 0
32.6406 -24.0925 0
-22.3151 29.9947 0
38.2189 -29.9073 0
-2.81878 -15.8512 0
-1.51602 31.9738 0
78.016 5.74921 0
-8.57206 -6.14596 0
-22.6124 20.2935 0
-0.96052 -1.62419 0
19.8866 -6.29856 0
-0.671462 -2.75596 0
-20.307 -9.79864 0
-12.0905 15.285 0
42283.2 2100.66 0
0.075 -0.075 0
0.075 -0.05 0
0.075 -0.025 0
0.075 0 0
4.78987 32.3728 0
16.0544 -105.279 0
-13.8676 104.991 0
-1.54032 -84.3223 0
-5.18587 62.6015 0
19.4709 -3.94129 0
-67.7234 -10.2371 0
358.075 -532.283 0
-2158.96 -327.21 0
-8.06223 -6.54379 0
-5.73931 -29.1344 0
-3.1044 -10.6594 0
5.44614 2.59744 0
-10.6347 -10.5074 0
6.9815 10.1665 0
-0.750818 -1.21775 0
-486.589 42.0101 0
514.208 -36.254 0
-7.2786 -0.187974 0
2.1652 8.92667 0
0.1 -0.075 0
0.1 -0.05 0
0.1 -0.025 0
0.1 0 0
4.28274 30.1955 0
50.8945 -83.8497 0
-43.9404 80.0507 0
215.291 -115.919 0
-54.1309 63.8958 0
-51.4395 -0.820008 0
28.3421 -25.4055 0
-4.06473 -9.07281 0
-7.25132 -8.98882 0
-45.6034 41.7365 0
16.0491 -11.9415 0
9.79579 -12.0471 0
17.3883 12.3845 0
-12.8145 -7.57084 0
-275.413 -47.8066 0
-42286.6 -2089.24 0
14.244 4.82182 0
-2.78154 -0.200569 0
3.94714 25.7035 0
-6.84276 -1.55286 0
0.125 -0.075 0
0.125 -0.05 0
0.125 -0.025 0
0.125 0 0
2.00886 29.3031 0
47.9627 -53.0346 0
-36.1529 44.7963 0
14.6253 -35.4123 0
0.801928 -89.5996 0
-21.6729 -1.98555 0
0.656182 -7.09931 0
-14.8305 -5.74217 0
74.3421 -93.4537 0
23.6886 -2.48012 0
1.33874 -0.976984 0
3.02017 1.63836 0
1.80456 1.09995 0
-3.62369 3.07831 0
2.92209 3.42086 0
2.11171 -13.8083 0
40.2496 80.6623 0
-31.177 -116.231 0
-4.63481 -9.01561 0
6.66191 12.5526 0
0.15 -0.075 0
0.15 -0.05 0
0.15 -0.025 0
0.15 0 0
2.16864 34.4583 0
63.1388 -56.0449 0
-26.1855 21.2108 0
-10.1928 -33.7139 0
-42.0884 0.652827 0
-52.4406 -25.6842 0
28.3151 16.7184 0
10.9884 4.22455 0
-6.19597 1.02873 0
-16.1474 -1.76759 0
0.159799 2.01184 0
1.05528 -1.45312 0
4.34225 -1.80296 0
12.6562 -24.9774 0
-0.86047 6.10187 0
1.90259 6.03078 0
4.56072 3.23105 0
-2.0531 5.01419 0
6.11719 13.9674 0
-6.60396 7.67904 0
0.175 -0.075 0
0.175 -0.05 0
0.175 -0.025 0
0.175 0 0
2.83622 44.3164 0
65.2111 -26.8599 0
-218.99 15.9796 0
-36.4646 21.4828 0
-15.9603 0.448248 0
16.6451 -44.5483 0
-1.76188 -3.11541 0
-2.04247 0.264772 0
-8.68924 -41.7403 0
-15.6742 23.3068 0
2.39621 2.14618 0
5.77376 -0.63687 0
2.25543 0.777072 0
3.8961 -9.41917 0
-31.0932 57.656 0
4.2932 6.89013 0
6.46877 6.93404 0
12.4443 -0.107029 0
-1.33742 7.2838 0
12.1685 -7.81163 0
0.2 -0.075 0
0.2 -0.05 0
0.2 -0.025 0
0.2 0 0
3.60063 61.8375 0
6326.02 1176.67 0
-14.0389 -18.3748 0
459078 596654 0
25.8885 25.3798 0
5.31126 16.4923 0
-0.979206 -2.41499 0
-2.54347 -2.03042 0
-582.595 125.779 0
25.0204 -9.38866 0
12.911 4.59694 0
6.09177 -5.20471 0
17.772 0.122262 0
12.3521 1.03096 0
15.5206 6.80328 0
10.0744 5.33433 0
-23.7611 -2.61981 0
7.38092 4.3206 0
1.52487 7.78043 0
0.383581 7.83612 0
0.225 -0.075 0
0.225 -0.05 0
0.225 -0.025 0
0.225 0 0
4.93601 117.305 0
-72.9597 -10.8652 0
20.1862 -20.6219 0
13.7088 6.74426 0
-63.2709 98.4598 0
-193.922 51.4509 0
853.258 13.6544 0
573.566 -109.848 0
5.61059 -2.73217 0
2.62929 3.03594 0
13.4346 2.47056 0
13.0616 2.4008 0
7.63849 2.59889 0
-12342.9 7641.21 0
5.27634 20.5622 0
-5359.62 -1426.97 0
-128.025 11.0679 0
4.5369 3.56631 0
2.40475 2.45226 0
0.921075 10.1803 0
0.25 -0.075 0
0.25 -0.05 0
0.25 -0.025 0
0.25 0 0
14.5237 208.354 0
11.1756 1.66904 0
174.185 -23.7172 0
11.844 -2.45441 0
80.2521 -159.696 0
-458964 -596662 0
17.9436 32.3142 0
17.7487 11.5321 0
13.8359 0.19069 0
6.8289 -11.4218 0
7.93105 -3.87627 0
10.1846 -2.79445 0
14463.6 8497.72 0
7.74109 -1.0349 0
3.98836 0.202428 0
5.24514 1.89468 0
4430.02 -2725.69 0
0.427036 5.96095 0
132.003 -2.44665 0
5362.99 1438.7 0
0.275 -0.075 0
0.275 -0.05 0
0.275 -0.025 0
0.275 0 0
0.3 -0.075 0
0.3 -0.05 0
0.3 -0.025 0
0.3 0 0
0.325 -0.075 0
0.325 -0.05 0
0.325 -0.025 0
0.325 0 0
0.35 -0.075 0
0.35 -0.05 0
0.35 -0.025 0
0.35 0 0
0.375 -0.075 0
0.375 -0.05 0
0.375 -0.025 0
0.375 0 0
0.4 -0.075 0
0.4 -0.05 0
0.4 -0.025 0
0.4 0 0
0.425 -0.075 0
0.425 -0.05 0
0.425 -0.025 0
0.425 0 0
0.45 -0.075 0
0.45 -0.05 0
0.45 -0.025 0
0.45 0 0
0.475 -0.075 0
0.475 -0.05 0
0.475 -0.025 0
0.475 0 0
0.5 -0.075 0
0.5 -0.05 0
0.5 -0.025 0
0.5 0 0
0.525 -0.075 0
0.525 -0.05 0
0.525 -0.025 0
0.525 0 0
0.55 -0.075 0
0.55 -0.05 0
0.55 -0.025 0
0.55 0 0
0.575 -0.075 0
0.575 -0.05 0
0.575 -0.025 0
0.575 0 0
0.6 -0.075 0
0.6 -0.05 0
0.6 -0.025 0
0.6 0 0
0.625 -0.075 0
0.625 -0.05 0
0.625 -0.025 0
0.625 0 0
0.65 -0.075 0
0.65 -0.05 0
0.65 -0.025 0
0.65 0 0
0.675 -0.075 0
0.675 -0.05 0
0.675 -0.025 0
0.675 0 0
0.7 -0.075 0
0.7 -0.05 0
0.7 -0.025 0
0.7 0 0
0.725 -0.075 0
0.725 -0.05 0
0.725 -0.025 0
0.725 0 0
0.75 -0.075 0
0.75 -0.05 0
0.75 -0.025 0
0.75 0 0
0.775 -0.075 0
0.775 -0.05 0
0.775 -0.025 0
0.775 0 0
0.8 -0.075 0
0.8 -0.05 0
0.8 -0.025 0
0.8 0 0
0.825 -0.075 0
0.825 -0.05 0
0.825 -0.025 0
0.825 0 0
0.85 -0.075 0
0.85 -0.05 0
0.85 -0.025 0
0.85 0 0
0.875 -0.075 0
0.875 -0.05 0
0.875 -0.025 0
0.875 0 0
0.9 -0.075 0
0.9 -0.05 0
0.9 -0.025 0
0.9 0 0
0.925 -0.075 0
0.925 -0.05 0
0.925 -0.025 0
0.925 0 0
0.95 -0.075 0
0.95 -0.05 0
0.95 -0.025 0
0.95 0 0
0.975 -0.075 0
0.975 -0.05 0
0.975 -0.025 0
0.975 0 0
1 -0.075 0
1 -0.05 0
1 -0.025 0
1 0 0
1.025 -0.075 0
1.025 -0.05 0
1.025 -0.025 0
1.025 0 0
1.025 0.025 0
1.025 0.05 0
1.025 0.075 0
1.025 0.1 0
1.025 0.125 0
1.025 0.15 0
1.025 0.175 0
1.025 0.2 0
1.025 0.225 0
1.025 0.25 0
1.025 0.275 0
1.025 0.3 0
1.025 0.325 0
1.025 0.35 0
1.025 0.375 0
1.025 0.4 0
1.025 0.425 0
1.025 0.45 0
1.025 0.475 0
1.025 0.5 0
1.025 0.525 0
1.025 0.55 0
1.025 0.575 0
1.025 0.6 0
1.05 -0.075 0
1.05 -0.05 0
1.05 -0.025 0
1.05 0 0
1.05 0.025 0
1.05 0.05 0
1.05 0.075 0
1.05 0.1 0
1.05 0.125 0
1.05 0.15 0
1.05 0.175 0
1.05 0.2 0
1.05 0.225 0
1.05 0.25 0
1.05 0.275 0
1.05 0.3 0
1.05 0.325 0
1.05 0.35 0
1.05 0.375 0
1.05 0.4 0
1.05 0.425 0
1.05 0.45 0
1.05 0.475 0
1.05 0.5 0
1.05 0.525 0
1.05 0.55 0
1.05 0.575 0
1.05 0.6 0
1.075 -0.075 0
1.075 -0.05 0
1.075 -0.025 0
1.075 0 0
1.075 0.025 0
1.075 0.05 0
1.075 0.075 0
1.075 0.1 0
1.075 0.125 0
1.075 0.15 0
1.075 0.175 0
1.075 0.2 0
1.075 0.225 0
1.075 0.25 0
1.075 0.275 0
1.075 0.3 0
1.075 0.325 0
1.075 0.35 0
1.075 0.375 0
1.075 0.4 0
1.075 0.425 0
1.075 0.45 0
1.075 0.475 0
1.075 0.5 0
1.075 0.525 0
1.075 0.55 0
1.075 0.575 0
1.075 0.6 0
1.1 -0.075 0
1.1 -0.05 0
1.1 -0.025 0
1.1 0 0
1.1 0.025 0
1.1 0.05 0
1.1 0.075 0
1.1 0.1 0
1.1 0.125 0
1.1 0.15 0
1.1 0.175 0
1.1 0.2 0
1.1 0.225 0
1.1 0.25 0
1.1 0.275 0
1.1 0.3 0
1.1 0.325 0
1.1 0.35 0
1.1 0.375 0
1.1 0.4 0
1.1 0.425 0
1.1 0.45 0
1.1 0.475 0
1.1 0.5 0
1.1 0.525 0
1.1 0.55 0
1.1 0.575 0
1.1 0.6 0
</DataArray>
</Points>
<PointData>
<DataArray NumberOfComponents='1' type='Int32' Name='ParticleType' format='ascii'>
2
2
2
2
2
2
2
2
2
2
2
2
2
2
2
2
2
2
2
2
2
2
2
2
2
2
1
1
2
2
2
2
2
2
2
2
2
2
2
2
2
2
2
2
2
2
2
2
2
2
2
2
2
2
1
1
2
2
1
1
1
1
1
1
1
1
1
1
1
1
1
1
1
1
1
1
1
1
1
1
1
1
1
1
2
2
1
1
1
1
1
1
1
1
1
1
1
1
1
1
1
1
1
1
1
1
1
1
1
1
1
1
2
2
1
1
0
0
0
0
0
0
0
0
0
0
0
0
0
0
0
0
0
0
0
0
2
2
1
1
0
0
0
0
0
0
0
0
0
0
0
0
0
0
0
0
0
0
0
0
2
2
1
1
0
0
0
0
0
0
0
0
0
0
0
0
0
0
0
0
0
0
0
0
2
2
1
1
0
0
0
0
0
0
0
0
0
0
0
0
0
0
0
0
0
0
0
0
2
2
1
1
0
0
0
0
0
0
0
0
0
0
0
0
0
0
0
0
0
0
0
0
2
2
1
1
0
0
0
0
0
0
0
0
0
0
0
0
0
0
0
0
0
0
0
0
2
2
1
1
0
0
0
0
0
0
0
0
0
0
0
0
0
0
0
0
0
0
0
0
2
2
1
1
0
0
0
0
0
0
0
0
0
0
0
0
0
0
0
0
0
0
0
0
2
2
1
1
0
0
0
0
0
0
0
0
0
0
0
0
0
0
0
0
0
0
0
0
2
2
1
1
0
0
0
0
0
0
0
0
0
0
0
0
0
0
0
0
0
0
0
0
2
2
1
1
2
2
1
1
2
2
1
1
2
2
1
1
2
2
1
1
2
2
1
1
2
2
1
1
2
2
1
1
2
2
1
1
2
2
1
1
2
2
1
1
2
2
1
1
2
2
1
1
2
2
1
1
2
2
1
1
2
2
1
1
2
2
1
1
2
2
1
1
2
2
1
1
2
2
1
1
2
2
1
1
2
2
1
1
2
2
1
1
2
2
1
1
2
2
1
1
2
2
1
1
2
2
1
1
2
2
1
1
2
2
1
1
2
2
1
1
2
2
1
1
1
1
1
1
1
1
1
1
1
1
1
1
1
1
1
1
1
1
1
1
1
1
1
1
2
2
1
1
1
1
1
1
1
1
1
1
1
1
1
1
1
1
1
1
1
1
1
1
1
1
1
1
2
2
2
2
2
2
2
2
2
2
2
2
2
2
2
2
2
2
2
2
2
2
2
2
2
2
1
1
2
2
2
2
2
2
2
2
2
2
2
2
2
2
2
2
2
2
2
2
2
2
2
2
2
2
1
1
</DataArray>
<DataArray NumberOfComponents='1' type='Float32' Name='Velocity' format='ascii'>
0
0
0
0
0
0
0
0
0
0
0
0
0
0
0
0
0
0
0
0
0
0
0
0
0
0
0
0
0
0
0
0
0
0
0
0
0
0
0
0
0
0
0
0
0
0
0
0
0
0
0
0
0
0
0
0
0
0
0
0
0
0
0
0
0
0
0
0
0
0
0
0
0
0
0
0
0
0
0
0
0
0
0
0
0
0
0
0
0
0
0
0
0
0
0
0
0
0
0
0
0
0
0
0
0
0
0
0
0
0
0
0
0
0
0
0
661973
61.1286
74.4851
38.7176
50.2296
3456.1
145.865
98.7383
60.0175
42.044
48.3013
64.8275
1958.96
50.264
429.377
62.3054
7.03586
508.76
76.83
113.518
0
0
0
0
51.0077
260.919
247.099
164.279
123.917
3868.16
73.6067
63.7929
88.0511
31.6698
53.5828
138.493
20.8551
51.8786
6.4369
37.9117
8.40722
41.6615
31.9965
76972.9
0
0
0
0
53.6304
189.699
182.914
151.984
108.037
35.6765
122.065
1139.96
3879.05
20.6452
55.9072
22.8728
9.62074
29.0303
19.0544
5.7386
864.334
912.406
13.629
12.6291
0
0
0
0
49.7262
174.481
157.742
433.887
145.932
91.3376
69.3272
20.5714
23.1055
107.632
38.6992
30.0444
35.8863
28.3735
496.432
76979.1
25.5208
6.5716
42.4624
14.0043
0
0
0
0
47.7756
127.46
98.8902
70.4221
162.026
39.1732
15.7076
29.7164
214.13
42.4974
5.39957
5.12043
3.23632
7.03224
5.59723
28.1162
156.849
220.177
21.328
22.5585
0
0
0
0
56.6696
149.836
57.5886
65.2264
74.849
105.091
56.4729
19.7549
11.3431
29.6533
0.344403
6.0548
9.84957
52.6003
7.68518
7.88836
8.07183
6.70391
23.6787
15.6315
0
0
0
0
73.7023
124.539
387.792
73.8689
28.6636
90.4557
9.27314
4.74454
78.9019
47.4651
3.95187
10.8274
4.10755
21.1216
113.566
11.3868
14.1892
22.0247
9.71288
28.5469
0
0
0
0
103.934
11367
43.132
1.33008e+06
61.9752
27.6652
7.65576
8.30914
1054.62
48.3484
23.0265
16.2862
31.3008
21.5713
28.4975
18.4761
43.1853
13.3407
10.4657
10.2526
0
0
0
0
199.568
130.323
52.4342
25.2497
204.603
354.175
1515.56
1033.79
12.4425
4.73096
23.3984
22.7421
13.156
26684
35.2388
10427.4
236.697
8.04852
3.66547
14.4982
0
0
0
0
357.232
19.0732
308.326
21.552
318.159
1.32998e+06
62.4243
35.383
24.1337
26.1476
16.897
19.3765
32381.3
14.2709
7.14204
8.7575
9562.46
7.29497
242.005
10435.3
0
0
0
0
0
0
0
0
0
0
0
0
0
0
0
0
0
0
0
0
0
0
0
0
0
0
0
0
0
0
0
0
0
0
0
0
0
0
0
0
0
0
0
0
0
0
0
0
0
0
0
0
0
0
0
0
0
0
0
0
0
0
0
0
0
0
0
0
0
0
0
0
0
0
0
0
0
0
0
0
0
0
0
0
0
0
0
0
0
0
0
0
0
0
0
0
0
0
0
0
0
0
0
0
0
0
0
0
0
0
0
0
0
0
0
0
0
0
0
0
0
0
0
0
0
0
0
0
0
0
0
0
0
0
0
0
0
0
0
0
0
0
0
0
0
0
0
0
0
0
0
0
0
0
0
0
0
0
0
0
0
0
0
0
0
0
0
0
0
0
0
0
0
0
0
0
0
0
0
0
0
0
0
0
0
0
0
0
0
0
0
0
0
0
0
0
0
0
0
0
0
0
0
0
0
0
0
0
0
0
0
0
0
0
0
0
0
0
0
0
0
0
0
0
0
0
0
0
0
0
0
0
</DataArray>
<DataArray NumberOfComponents='1' type='Float32' Name='pressure' format='ascii'>
0
0
0
0
0
0
0
0
0
0
0
0
0
0
0
0
0
0
0
0
0
0
0
0
0
0
0
0
0
0
0
0
0
0
0
0
0
0
0
0
0
0
0
0
0
0
0
0
0
0
0
0
0
0
0
0
0
0
0
0
0
0
0
0
0
0
0
0
0
0
0
0
0
0
0
0
0
0
0
0
0
0
0
0
0
0
0
0
0
0
0
0
0
0
0
0
0
0
0
0
0
0
0
0
0
0
0
0
0
0
0
0
0
0
0
0
0
0
0
0
0
0
0
0
0
0
0
0
0
0
0
0
0
0
0
0
0
0
0
0
0
0
0
0
0
0
0
0
0
0
0
0
0
0
0
0
0
0
0
0
0
0
0
0
0
0
0
0
0
0
0
0
0
0
0
0
0
0
0
0
0
0
0
0
0
0
0
0
0
0
0
0
0
0
0
0
0
0
0
0
0
0
0
0
0
0
0
0
0
0
0
0
0
0
0
0
0
0
0
0
0
0
0
0
0
0
0
0
0
0
0
0
0
0
0
0
0
0
0
0
0
0
0
0
0
0
0
0
0
0
0
0
0
0
0
0
0
0
0
0
0
0
0
0
0
0
0
0
0
0
0
0
0
0
0
0
0
0
0
0
0
0
0
0
0
0
0
0
0
0
0
0
0
0
0
0
0
0
0
0
0
0
0
0
0
0
0
0
0
0
0
0
0
0
0
0
0
0
0
0
0
0
0
0
0
0
0
0
0
0
0
0
0
0
0
0
0
0
0
0
0
0
0
0
0
0
0
0
0
0
0
0
0
0
0
0
0
0
0
0
0
0
0
0
0
0
0
0
0
0
0
0
0
0
0
0
0
0
0
0
0
0
0
0
0
0
0
0
0
0
0
0
0
0
0
0
0
0
0
0
0
0
0
0
0
0
0
0
0
0
0
0
0
0
0
0
0
0
0
0
0
0
0
0
0
0
0
0
0
0
0
0
0
0
0
0
0
0
0
0
0
0
0
0
0
0
0
0
0
0
0
0
0
0
0
0
0
0
0
0
0
0
0
0
0
0
0
0
0
0
0
0
0
0
0
0
0
0
0
0
0
0
0
0
0
0
0
0
0
0
0
0
0
0
0
0
0
0
0
0
0
0
0
0
0
0
0
0
0
0
0
0
0
0
0
0
0
0
0
0
0
0
0
0
0
0
0
0
0
0
0
0
0
0
0
0
0
0
0
0
0
0
0
0
0
0
0
0
0
0
0
0
0
0
0
0
0
0
0
0
0
0
0
0
0
0
0
0
0
0
0
0
0
0
0
0
0
0
0
0
0
0
0
0
</DataArray>
</PointData>
<Cells>
<DataArray type='Int32' Name='connectivity' format='ascii'>
0
1
2
3
4
5
6
7
8
9
10
11
12
13
14
15
16
17
18
19
20
21
22
23
24
25
26
27
28
29
30
31
32
33
34
35
36
37
38
39
40
41
42
43
44
45
46
47
48
49
50
51
52
53
54
55
56
57
58
59
60
61
62
63
64
65
66
67
68
69
70
71
72
73
74
75
76
77
78
79
80
81
82
83
84
85
86
87
88
89
90
91
92
93
94
95
96
97
98
99
100
101
102
103
104
105
106
107
108
109
110
111
112
113
114
115
116
117
118
119
120
121
122
123
124
125
126
127
128
129
130
131
132
133
134
135
136
137
138
139
140
141
142
143
144
145
146
147
148
149
150
151
152
153
154
155
156
157
158
159
160
161
162
163
164
165
166
167
168
169
170
171
172
173
174
175
176
177
178
179
180
181
182
183
184
185
186
187
188
189
190
191
192
193
194
195
196
197
198
199
200
201
202
203
204
205
206
207
208
209
210
211
212
213
214
215
216
217
218
219
220
221
222
223
224
225
226
227
228
229
230
231
232
233
234
235
236
237
238
239
240
241
242
243
244
245
246
247
248
249
250
251
252
253
254
255
256
257
258
259
260
261
262
263
264
265
266
267
268
269
270
271
272
273
274
275
276
277
278
279
280
281
282
283
284
285
286
287
288
289
290
291
292
293
294
295
296
297
298
299
300
301
302
303
304
305
306
307
308
309
310
311
312
313
314
315
316
317
318
319
320
321
322
323
324
325
326
327
328
329
330
331
332
333
334
335
336
337
338
339
340
341
342
343
344
345
346
347
348
349
350
351
352
353
354
355
356
357
358
359
360
361
362
363
364
365
366
367
368
369
370
371
372
373
374
375
376
377
378
379
380
381
382
383
384
385
386
387
388
389
390
391
392
393
394
395
396
397
398
399
400
401
402
403
404
405
406
407
408
409
410
411
412
413
414
415
416
417
418
419
420
421
422
423
424
425
426
427
428
429
430
431
432
433
434
435
436
437
438
439
440
441
442
443
444
445
446
447
448
449
450
451
452
453
454
455
456
457
458
459
460
461
462
463
464
465
466
467
468
469
470
471
472
473
474
475
476
477
478
479
480
481
482
483
484
485
486
487
488
489
490
491
492
493
494
495
496
497
498
499
500
501
502
503
504
505
506
507
508
509
510
511
512
513
514
515
516
517
518
519
520
521
522
523
524
525
526
527
528
529
530
531
532
533
534
535
536
537
538
539
540
541
542
543
544
545
546
547
548
549
550
551
552
553
554
555
556
557
558
559
560
561
562
563
564
565
566
567
568
569
570
571
572
573
574
575
576
577
578
579
580
581
582
583
</DataArray>
<DataArray type='Int32' Name='offsets' format='ascii'>
1
2
3
4
5
6
7
8
9
10
11
12
13
14
15
16
17
18
19
20
21
22
23
24
25
26
27
28
29
30
31
32
33
34
35
36
37
38
39
40
41
42
43
44
45
46
47
48
49
50
51
52
53
54
55
56
57
58
59
60
61
62
63
64
65
66
67
68
69
70
71
72
73
74
75
76
77
78
79
80
81
82
83
84
85
86
87
88
89
90
91
92
93
94
95
96
97
98
99
100
101
102
103
104
105
106
107
108
109
110
111
112
113
114
115
116
117
118
119
120
121
122
123
124
125
126
127
128
129
130
131
132
133
134
135
136
137
138
139
140
141
142
143
144
145
146
147
148
149
150
151
152
153
154
155
156
157
158
159
160
161
162
163
164
165
166
167
168
169
170
171
172
173
174
175
176
177
178
179
180
181
182
183
184
185
186
187
188
189
190
191
192
193
194
195
196
197
198
199
200
201
202
203
204
205
206
207
208
209
210
211
212
213
214
215
216
217
218
219
220
221
222
223
224
225
226
227
228
229
230
231
232
233
234
235
236
237
238
239
240
241
242
243
244
245
246
247
248
249
250
251
252
253
254
255
256
257
258
259
260
261
262
263
264
265
266
267
268
269
270
271
272
273
274
275
276
277
278
279
280
281
282
283
284
285
286
287
288
289
290
291
292
293
294
295
296
297
298
299
300
301
302
303
304
305
306
307
308
309
310
311
312
313
314
315
316
317
318
319
320
321
322
323
324
325
326
327
328
329
330
331
332
333
334
335
336
337
338
339
340
341
342
343
344
345
346
347
348
349
350
351
352
353
354
355
356
357
358
359
360
361
362
363
364
365
366
367
368
369
370
371
372
373
374
375
376
377
378
379
380
381
382
383
384
385
386
387
388
389
390
391
392
393
394
395
396
397
398
399
400
401
402
403
404
405
406
407
408
409
410
411
412
413
414
415
416
417
418
419
420
421
422
423
424
425
426
427
428
429
430
431
432
433
434
435
436
437
438
439
440
441
442
443
444
445
446
447
448
449
450
451
452
453
454
455
456
457
458
459
460
461
462
463
464
465
466
467
468
469
470
471
472
473
474
475
476
477
478
479
480
481
482
483
484
485
486
487
488
489
490
491
492
493
494
495
496
497
498
499
500
501
502
503
504
505
506
507
508
509
510
511
512
513
514
515
516
517
518
519
520
521
522
523
524
525
526
527
528
529
530
531
532
533
534
535
536
537
538
539
540
541
542
543
544
545
546
547
548
549
550
551
552
553
554
555
556
557
558
559
560
561
562
563
564
565
566
567
568
569
570
571
572
573
574
575
576
577
578
579
580
581
582
583
584
</DataArray>
<DataArray type='UInt8' Name='types' format='ascii'>
1
1
1
1
1
1
1
1
1
1
1
1
1
1
1
1
1
1
1
1
1
1
1
1
1
1
1
1
1
1
1
1
1
1
1
1
1
1
1
1
1
1
1
1
1
1
1
1
1
1
1
1
1
1
1
1
1
1
1
1
1
1
1
1
1
1
1
1
1
1
1
1
1
1
1
1
1
1
1
1
1
1
1
1
1
1
1
1
1
1
1
1
1
1
1
1
1
1
1
1
1
1
1
1
1
1
1
1
1
1
1
1
1
1
1
1
1
1
1
1
1
1
1
1
1
1
1
1
1
1
1
1
1
1
1
1
1
1
1
1
1
1
1
1
1
1
1
1
1
1
1
1
1
1
1
1
1
1
1
1
1
1
1
1
1
1
1
1
1
1
1
1
1
1
1
1
1
1
1
1
1
1
1
1
1
1
1
1
1
1
1
1
1
1
1
1
1
1
1
1
1
1
1
1
1
1
1
1
1
1
1
1
1
1
1
1
1
1
1
1
1
1
1
1
1
1
1
1
1
1
1
1
1
1
1
1
1
1
1
1
1
1
1
1
1
1
1
1
1
1
1
1
1
1
1
1
1
1
1
1
1
1
1
1
1
1
1
1
1
1
1
1
1
1
1
1
1
1
1
1
1
1
1
1
1
1
1
1
1
1
1
1
1
1
1
1
1
1
1
1
1
1
1
1
1
1
1
1
1
1
1
1
1
1
1
1
1
1
1
1
1
1
1
1
1
1
1
1
1
1
1
1
1
1
1
1
1
1
1
1
1
1
1
1
1
1
1
1
1
1
1
1
1
1
1
1
1
1
1
1
1
1
1
1
1
1
1
1
1
1
1
1
1
1
1
1
1
1
1
1
1
1
1
1
1
1
1
1
1
1
1
1
1
1
1
1
1
1
1
1
1
1
1
1
1
1
1
1
1
1
1
1
1
1
1
1
1
1
1
1
1
1
1
1
1
1
1
1
1
1
1
1
1
1
1
1
1
1
1
1
1
1
1
1
1
1
1
1
1
1
1
1
1
1
1
1
1
1
1
1
1
1
1
1
1
1
1
1
1
1
1
1
1
1
1
1
1
1
1
1
1
1
1
1
1
1
1
1
1
1
1
1
1
1
1
1
1
1
1
1
1
1
1
1
1
1
1
1
1
1
1
1
1
1
1
1
1
1
1
1
1
1
1
1
1
1
1
1
1
1
1
1
1
1
1
1
1
1
1
1
1
1
1
1
1
1
1
1
1
1
1
1
1
1
1
1
1
1
1
1
1
1
1
1
1
1
1
1
1
1
1
1
1
1
1
1
1
1
1
1
1
1
1
1
</DataArray>
</Cells>
</Piece>
</UnstructuredGrid>
</VTKFile>
