<?xml version='1.0' encoding='UTF-8'?>
<VTKFile xmlns='VTK' byte_order='LittleEndian' version='0.1' type='UnstructuredGrid'>
<UnstructuredGrid>
<Piece NumberOfCells='584' NumberOfPoints='584'>
<Points>
<DataArray NumberOfComponents='3' type='Float32' Name='Position' format='ascii'>
-0.075 -0.075 0
-0.075 -0.05 0
-0.075 -0.025 0
-0.075 0 0
-0.075 0.025 0
-0.075 0.05 0
-0.075 0.075 0
-0.075 0.1 0
-0.075 0.125 0
-0.075 0.15 0
-0.075 0.175 0
-0.075 0.2 0
-0.075 0.225 0
-0.075 0.25 0
-0.075 0.275 0
-0.075 0.3 0
-0.075 0.325 0
-0.075 0.35 0
-0.075 0.375 0
-0.075 0.4 0
-0.075 0.425 0
-0.075 0.45 0
-0.075 0.475 0
-0.075 0.5 0
-0.075 0.525 0
-0.075 0.55 0
-0.075 0.575 0
-0.075 0.6 0
-0.05 -0.075 0
-0.05 -0.05 0
-0.05 -0.025 0
-0.05 0 0
-0.05 0.025 0
-0.05 0.05 0
-0.05 0.075 0
-0.05 0.1 0
-0.05 0.125 0
-0.05 0.15 0
-0.05 0.175 0
-0.05 0.2 0
-0.05 0.225 0
-0.05 0.25 0
-0.05 0.275 0
-0.05 0.3 0
-0.05 0.325 0
-0.05 0.35 0
-0.05 0.375 0
-0.05 0.4 0
-0.05 0.425 0
-0.05 0.45 0
-0.05 0.475 0
-0.05 0.5 0
-0.05 0.525 0
-0.05 0.55 0
-0.05 0.575 0
-0.05 0.6 0
-0.025 -0.075 0
-0.025 -0.05 0
-0.025 -0.025 0
-0.025 0 0
-0.025 0.025 0
-0.025 0.05 0
-0.025 0.075 0
-0.025 0.1 0
-0.025 0.125 0
-0.025 0.15 0
-0.025 0.175 0
-0.025 0.2 0
-0.025 0.225 0
-0.025 0.25 0
-0.025 0.275 0
-0.025 0.3 0
-0.025 0.325 0
-0.025 0.35 0
-0.025 0.375 0
-0.025 0.4 0
-0.025 0.425 0
-0.025 0.45 0
-0.025 0.475 0
-0.025 0.5 0
-0.025 0.525 0
-0.025 0.55 0
-0.025 0.575 0
-0.025 0.6 0
0 -0.075 0
0 -0.05 0
0 -0.025 0
0 0 0
0 0.025 0
0 0.05 0
0 0.075 0
0 0.1 0
0 0.125 0
0 0.15 0
0 0.175 0
0 0.2 0
0 0.225 0
0 0.25 0
0 0.275 0
0 0.3 0
0 0.325 0
0 0.35 0
0 0.375 0
0 0.4 0
0 0.425 0
0 0.45 0
0 0.475 0
0 0.5 0
0 0.525 0
0 0.55 0
0 0.575 0
0 0.6 0
0.025 -0.075 0
0.025 -0.05 0
0.025 -0.025 0
0.025 0 0
-456947 280551 0
-19.7844 -44.0092 0
-55.5009 24.144 0
31.1987 0.351056 0
-30.3465 -25.3332 0
-1964.83 1971.14 0
116.041 -16.6407 0
-78.6915 -9.58385 0
10.0059 -45.7396 0
-12.7329 -29.7969 0
-23.3418 -29.476 0
41.6089 -29.7825 0
-1573.02 1.18912 0
27.3878 -28.0988 0
24.609 -343.168 0
-38.0795 32.9698 0
5.2152 3.92247 0
405.371 57.2119 0
62.0303 -1.4546 0
91.2955 -9.27035 0
0.05 -0.075 0
0.05 -0.05 0
0.05 -0.025 0
0.05 0 0
0.0133417 43.1949 0
-80.4885 -194.019 0
76.2804 186.45 0
-64.0677 -114.449 0
71.0118 71.4701 0
-1739.01 2579.82 0
46.4842 -35.3499 0
-31.8206 41.7134 0
54.4906 -43.6742 0
-4.03722 -23.6371 0
-2.18068 44.5331 0
111.213 7.12304 0
-12.2472 -9.82729 0
-32.2692 27.8694 0
-1.39853 -3.38907 0
28.292 -10.0657 0
-0.991688 -5.03154 0
-28.9706 -15.0737 0
-17.2887 20.6539 0
60734 3016.12 0
0.075 -0.075 0
0.075 -0.05 0
0.075 -0.025 0
0.075 0 0
6.77159 44.8072 0
22.7803 -150.591 0
-19.7403 148.213 0
-2.23038 -121.075 0
-7.42197 88.1502 0
27.6908 -6.62212 0
-96.5697 -15.6317 0
510.43 -759.809 0
-3079.31 -467.686 0
-11.5253 -10.3709 0
-8.213 -42.6055 0
-4.46081 -16.2621 0
7.73216 2.63877 0
-15.1993 -16.0545 0
9.91325 13.3928 0
-1.11283 -2.83 0
-693.33 58.7425 0
732.583 -52.7733 0
-10.4126 -1.4078 0
3.03359 11.5472 0
0.1 -0.075 0
0.1 -0.05 0
0.1 -0.025 0
0.1 0 0
6.03692 41.7168 0
72.2771 -120.138 0
-62.4875 112.771 0
306.677 -166.125 0
-77.1494 90.0095 0
-73.3338 -2.18436 0
40.3384 -37.2185 0
-5.83721 -13.9642 0
-10.3774 -13.8524 0
-65.0531 58.4526 0
23.0682 -18.3074 0
13.9248 -18.242 0
24.7387 16.5899 0
-18.3168 -11.8662 0
-392.665 -69.2407 0
-60739.1 -3002.1 0
20.2462 5.75878 0
-4.04621 -1.42639 0
5.55845 35.4829 0
-9.82926 -3.37813 0
0.125 -0.075 0
0.125 -0.05 0
0.125 -0.025 0
0.125 0 0
2.79142 40.459 0
68.0982 -76.3471 0
-51.4332 62.6732 0
20.7568 -51.4456 0
1.12828 -128.768 0
-30.9423 -3.83991 0
0.879929 -11.1459 0
-21.2067 -9.22066 0
105.93 -134.275 0
33.7238 -4.58615 0
1.85269 -2.45002 0
4.24619 1.27077 0
2.51146 0.494694 0
-5.23113 3.30925 0
4.09886 3.78534 0
2.93268 -20.7895 0
57.334 113.922 0
-44.673 -167.604 0
-6.67832 -13.9921 0
9.56259 16.8406 0
0.15 -0.075 0
0.15 -0.05 0
0.15 -0.025 0
0.15 0 0
3.00394 47.7499 0
89.6512 -80.6236 0
-37.2883 29.1587 0
-14.5715 -49.0268 0
-60.0467 -0.0740437 0
-74.8094 -37.6201 0
40.2812 22.7998 0
15.6114 4.99266 0
-8.89936 0.424653 0
-23.1 -3.57136 0
0.158187 1.81107 0
1.43317 -3.13969 0
6.11928 -3.64528 0
17.9657 -36.7141 0
-1.30996 7.60729 0
2.63062 7.49499 0
6.42089 3.48863 0
-3.01794 6.01832 0
8.63165 18.7803 0
-9.49357 9.78819 0
0.175 -0.075 0
0.175 -0.05 0
0.175 -0.025 0
0.175 0 0
3.93741 61.6872 0
92.5831 -39.1492 0
-311.862 21.7673 0
-52.0444 29.6594 0
-22.8198 -0.355821 0
23.7589 -65.3424 0
-2.58796 -5.46539 0
-2.98666 -0.65514 0
-12.4739 -60.5781 0
-22.437 32.1903 0
3.33452 2.0011 0
8.14864 -1.97507 0
3.12458 0.0284628 0
5.46669 -14.5223 0
-44.4398 81.1369 0
6.02897 8.71752 0
9.11132 8.79859 0
17.6541 -1.2842 0
-1.997 9.23622 0
17.5004 -12.3974 0
0.2 -0.075 0
0.2 -0.05 0
0.2 -0.025 0
0.2 0 0
5.00779 86.4584 0
9008.21 1674.66 0
-20.0432 -27.0905 0
653739 849652 0
36.7927 35.2125 0
7.47355 22.4866 0
-1.48845 -4.46381 0
-3.71887 -3.92482 0
-830.162 178.171 0
35.5975 -14.4437 0
18.3107 5.48945 0
8.58829 -8.49566 0
25.2472 -0.905514 0
17.5163 0.381704 0
22.0345 8.60476 0
14.266 6.49774 0
-33.9423 -4.84371 0
10.4233 5.03495 0
2.07244 9.94837 0
0.451376 10.0124 0
0.225 -0.075 0
0.225 -0.05 0
0.225 -0.025 0
0.225 0 0
6.8854 164.879 0
-103.791 -16.4105 0
28.5813 -30.2801 0
19.38 8.59632 0
-90.2195 139.226 0
-276.263 72.2679 0
1216.96 18.4268 0
817.103 -157.54 0
7.88894 -4.946 0
3.63957 3.27073 0
19.0437 2.45873 0
18.5148 2.35039 0
10.7807 2.62466 0
-17788.5 11011.2 0
7.37586 28.4713 0
-7777.73 -2071.97 0
-184.693 14.7698 0
6.33591 3.98633 0
3.27179 2.31764 0
1.21068 13.3644 0
0.25 -0.075 0
0.25 -0.05 0
0.25 -0.025 0
0.25 0 0
20.4301 293.603 0
15.7531 1.4108 0
247.409 -34.6745 0
16.7196 -4.46486 0
114.159 -228.396 0
-653578 -849665 0
25.4337 45.0059 0
25.1567 15.4001 0
19.5885 -0.768316 0
9.60645 -17.3325 0
11.1798 -6.58686 0
14.3944 -5.05349 0
21164.5 12433.8 0
10.924 -2.58301 0
5.53335 -0.823368 0
7.34684 1.59104 0
6384.21 -3929.35 0
0.422424 7.42832 0
190.051 -4.70789 0
7782.15 2086.48 0
0.275 -0.075 0
0.275 -0.05 0
0.275 -0.025 0
0.275 0 0
0.3 -0.075 0
0.3 -0.05 0
0.3 -0.025 0
0.3 0 0
0.325 -0.075 0
0.325 -0.05 0
0.325 -0.025 0
0.325 0 0
0.35 -0.075 0
0.35 -0.05 0
0.35 -0.025 0
0.35 0 0
0.375 -0.075 0
0.375 -0.05 0
0.375 -0.025 0
0.375 0 0
0.4 -0.075 0
0.4 -0.05 0
0.4 -0.025 0
0.4 0 0
0.425 -0.075 0
0.425 -0.05 0
0.425 -0.025 0
0.425 0 0
0.45 -0.075 0
0.45 -0.05 0
0.45 -0.025 0
0.45 0 0
0.475 -0.075 0
0.475 -0.05 0
0.475 -0.025 0
0.475 0 0
0.5 -0.075 0
0.5 -0.05 0
0.5 -0.025 0
0.5 0 0
0.525 -0.075 0
0.525 -0.05 0
0.525 -0.025 0
0.525 0 0
0.55 -0.075 0
0.55 -0.05 0
0.55 -0.025 0
0.55 0 0
0.575 -0.075 0
0.575 -0.05 0
0.575 -0.025 0
0.575 0 0
0.6 -0.075 0
0.6 -0.05 0
0.6 -0.025 0
0.6 0 0
0.625 -0.075 0
0.625 -0.05 0
0.625 -0.025 0
0.625 0 0
0.65 -0.075 0
0.65 -0.05 0
0.65 -0.025 0
0.65 0 0
0.675 -0.075 0
0.675 -0.05 0
0.675 -0.025 0
0.675 0 0
0.7 -0.075 0
0.7 -0.05 0
0.7 -0.025 0
0.7 0 0
0.725 -0.075 0
0.725 -0.05 0
0.725 -0.025 0
0.725 0 0
0.75 -0.075 0
0.75 -0.05 0
0.75 -0.025 0
0.75 0 0
0.775 -0.075 0
0.775 -0.05 0
0.775 -0.025 0
0.775 0 0
0.8 -0.075 0
0.8 -0.05 0
0.8 -0.025 0
0.8 0 0
0.825 -0.075 0
0.825 -0.05 0
0.825 -0.025 0
0.825 0 0
0.85 -0.075 0
0.85 -0.05 0
0.85 -0.025 0
0.85 0 0
0.875 -0.075 0
0.875 -0.05 0
0.875 -0.025 0
0.875 0 0
0.9 -0.075 0
0.9 -0.05 0
0.9 -0.025 0
0.9 0 0
0.925 -0.075 0
0.925 -0.05 0
0.925 -0.025 0
0.925 0 0
0.95 -0.075 0
0.95 -0.05 0
0.95 -0.025 0
0.95 0 0
0.975 -0.075 0
0.975 -0.05 0
0.975 -0.025 0
0.975 0 0
1 -0.075 0
1 -0.05 0
1 -0.025 0
1 0 0
1.025 -0.075 0
1.025 -0.05 0
1.025 -0.025 0
1.025 0 0
1.025 0.025 0
1.025 0.05 0
1.025 0.075 0
1.025 0.1 0
1.025 0.125 0
1.025 0.15 0
1.025 0.175 0
1.025 0.2 0
1.025 0.225 0
1.025 0.25 0
1.025 0.275 0
1.025 0.3 0
1.025 0.325 0
1.025 0.35 0
1.025 0.375 0
1.025 0.4 0
1.025 0.425 0
1.025 0.45 0
1.025 0.475 0
1.025 0.5 0
1.025 0.525 0
1.025 0.55 0
1.025 0.575 0
1.025 0.6 0
1.05 -0.075 0
1.05 -0.05 0
1.05 -0.025 0
1.05 0 0
1.05 0.025 0
1.05 0.05 0
1.05 0.075 0
1.05 0.1 0
1.05 0.125 0
1.05 0.15 0
1.05 0.175 0
1.05 0.2 0
1.05 0.225 0
1.05 0.25 0
1.05 0.275 0
1.05 0.3 0
1.05 0.325 0
1.05 0.35 0
1.05 0.375 0
1.05 0.4 0
1.05 0.425 0
1.05 0.45 0
1.05 0.475 0
1.05 0.5 0
1.05 0.525 0
1.05 0.55 0
1.05 0.575 0
1.05 0.6 0
1.075 -0.075 0
1.075 -0.05 0
1.075 -0.025 0
1.075 0 0
1.075 0.025 0
1.075 0.05 0
1.075 0.075 0
1.075 0.1 0
1.075 0.125 0
1.075 0.15 0
1.075 0.175 0
1.075 0.2 0
1.075 0.225 0
1.075 0.25 0
1.075 0.275 0
1.075 0.3 0
1.075 0.325 0
1.075 0.35 0
1.075 0.375 0
1.075 0.4 0
1.075 0.425 0
1.075 0.45 0
1.075 0.475 0
1.075 0.5 0
1.075 0.525 0
1.075 0.55 0
1.075 0.575 0
1.075 0.6 0
1.1 -0.075 0
1.1 -0.05 0
1.1 -0.025 0
1.1 0 0
1.1 0.025 0
1.1 0.05 0
1.1 0.075 0
1.1 0.1 0
1.1 0.125 0
1.1 0.15 0
1.1 0.175 0
1.1 0.2 0
1.1 0.225 0
1.1 0.25 0
1.1 0.275 0
1.1 0.3 0
1.1 0.325 0
1.1 0.35 0
1.1 0.375 0
1.1 0.4 0
1.1 0.425 0
1.1 0.45 0
1.1 0.475 0
1.1 0.5 0
1.1 0.525 0
1.1 0.55 0
1.1 0.575 0
1.1 0.6 0
</DataArray>
</Points>
<PointData>
<DataArray NumberOfComponents='1' type='Int32' Name='ParticleType' format='ascii'>
2
2
2
2
2
2
2
2
2
2
2
2
2
2
2
2
2
2
2
2
2
2
2
2
2
2
1
1
2
2
2
2
2
2
2
2
2
2
2
2
2
2
2
2
2
2
2
2
2
2
2
2
2
2
1
1
2
2
1
1
1
1
1
1
1
1
1
1
1
1
1
1
1
1
1
1
1
1
1
1
1
1
1
1
2
2
1
1
1
1
1
1
1
1
1
1
1
1
1
1
1
1
1
1
1
1
1
1
1
1
1
1
2
2
1
1
0
0
0
0
0
0
0
0
0
0
0
0
0
0
0
0
0
0
0
0
2
2
1
1
0
0
0
0
0
0
0
0
0
0
0
0
0
0
0
0
0
0
0
0
2
2
1
1
0
0
0
0
0
0
0
0
0
0
0
0
0
0
0
0
0
0
0
0
2
2
1
1
0
0
0
0
0
0
0
0
0
0
0
0
0
0
0
0
0
0
0
0
2
2
1
1
0
0
0
0
0
0
0
0
0
0
0
0
0
0
0
0
0
0
0
0
2
2
1
1
0
0
0
0
0
0
0
0
0
0
0
0
0
0
0
0
0
0
0
0
2
2
1
1
0
0
0
0
0
0
0
0
0
0
0
0
0
0
0
0
0
0
0
0
2
2
1
1
0
0
0
0
0
0
0
0
0
0
0
0
0
0
0
0
0
0
0
0
2
2
1
1
0
0
0
0
0
0
0
0
0
0
0
0
0
0
0
0
0
0
0
0
2
2
1
1
0
0
0
0
0
0
0
0
0
0
0
0
0
0
0
0
0
0
0
0
2
2
1
1
2
2
1
1
2
2
1
1
2
2
1
1
2
2
1
1
2
2
1
1
2
2
1
1
2
2
1
1
2
2
1
1
2
2
1
1
2
2
1
1
2
2
1
1
2
2
1
1
2
2
1
1
2
2
1
1
2
2
1
1
2
2
1
1
2
2
1
1
2
2
1
1
2
2
1
1
2
2
1
1
2
2
1
1
2
2
1
1
2
2
1
1
2
2
1
1
2
2
1
1
2
2
1
1
2
2
1
1
2
2
1
1
2
2
1
1
2
2
1
1
1
1
1
1
1
1
1
1
1
1
1
1
1
1
1
1
1
1
1
1
1
1
1
1
2
2
1
1
1
1
1
1
1
1
1
1
1
1
1
1
1
1
1
1
1
1
1
1
1
1
1
1
2
2
2
2
2
2
2
2
2
2
2
2
2
2
2
2
2
2
2
2
2
2
2
2
2
2
1
1
2
2
2
2
2
2
2
2
2
2
2
2
2
2
2
2
2
2
2
2
2
2
2
2
2
2
1
1
</DataArray>
<DataArray NumberOfComponents='1' type='Float32' Name='Velocity' format='ascii'>
0
0
0
0
0
0
0
0
0
0
0
0
0
0
0
0
0
0
0
0
0
0
0
0
0
0
0
0
0
0
0
0
0
0
0
0
0
0
0
0
0
0
0
0
0
0
0
0
0
0
0
0
0
0
0
0
0
0
0
0
0
0
0
0
0
0
0
0
0
0
0
0
0
0
0
0
0
0
0
0
0
0
0
0
0
0
0
0
0
0
0
0
0
0
0
0
0
0
0
0
0
0
0
0
0
0
0
0
0
0
0
0
0
0
0
0
661972
63.2914
73.6271
38.8632
51.8135
3454.43
146.245
99.0924
62.3204
44.2311
50.1993
66.2685
1958.96
52.0175
431.723
60.8395
6.45921
508.446
76.9857
113.826
0
0
0
0
48.6557
263.095
244.926
166.34
122.276
3866.21
75.0904
61.9663
89.5701
33.9935
51.2341
138.396
22.5182
50.427
8.71792
38.873
10.7359
42.8841
30.3071
76972.8
0
0
0
0
51.3078
192.025
180.583
154.336
105.694
36.4051
122.497
1141.91
3879.4
22.3878
58.2205
25.1586
9.57735
30.8457
17.3151
8.03172
864.144
912.584
14.4787
10.3976
0
0
0
0
47.401
176.508
155.696
435.019
144.168
91.4837
70.9773
22.7822
25.0832
106.099
40.2788
32.001
34.7185
29.8198
496.855
76979.2
25.158
8.19689
40.1418
15.2274
0
0
0
0
45.4294
129.24
97.1023
72.6189
164.378
39.6341
18.056
30.8419
215.99
42.98
7.61602
5.77931
4.72374
6.70096
4.91551
30.4521
154.757
222.452
23.5032
20.6111
0
0
0
0
54.3222
151.435
56.2196
67.4877
74.944
106.198
55.4073
19.3695
11.8525
30.2432
2.00767
8.34832
11.5369
54.7432
5.43441
5.78832
7.75132
5.02379
21.5945
14.2472
0
0
0
0
71.355
125.502
387.646
72.7758
28.9368
92.681
11.4903
6.36537
81.2078
45.5938
4.29392
11.9766
5.61442
23.3692
111.521
9.68605
12.8361
22.5419
7.48664
30.0796
0
0
0
0
101.585
11366.6
45.0685
1.33008e+06
60.4002
25.453
9.93702
10.3029
1054.13
49.3622
22.6429
18.1582
31.6206
21.8637
27.8707
17.8477
43.6868
12.8043
8.18632
7.90179
0
0
0
0
197.218
130.739
54.209
24.5199
202.641
353.598
1515.53
1034.24
14.0778
4.21392
23.4029
22.7633
13.1359
26682.8
32.9656
10428
236.544
7.5182
4.00639
12.156
0
0
0
0
354.885
19.2049
308.674
22.447
320.268
1.32998e+06
60.3988
34.2946
24.5195
28.2758
18.4014
20.4866
32380.1
15.2963
8.43157
9.08967
9563.7
4.94298
242.096
10434.7
0
0
0
0
0
0
0
0
0
0
0
0
0
0
0
0
0
0
0
0
0
0
0
0
0
0
0
0
0
0
0
0
0
0
0
0
0
0
0
0
0
0
0
0
0
0
0
0
0
0
0
0
0
0
0
0
0
0
0
0
0
0
0
0
0
0
0
0
0
0
0
0
0
0
0
0
0
0
0
0
0
0
0
0
0
0
0
0
0
0
0
0
0
0
0
0
0
0
0
0
0
0
0
0
0
0
0
0
0
0
0
0
0
0
0
0
0
0
0
0
0
0
0
0
0
0
0
0
0
0
0
0
0
0
0
0
0
0
0
0
0
0
0
0
0
0
0
0
0
0
0
0
0
0
0
0
0
0
0
0
0
0
0
0
0
0
0
0
0
0
0
0
0
0
0
0
0
0
0
0
0
0
0
0
0
0
0
0
0
0
0
0
0
0
0
0
0
0
0
0
0
0
0
0
0
0
0
0
0
0
0
0
0
0
0
0
0
0
0
0
0
0
0
0
0
0
0
0
0
0
0
0
</DataArray>
<DataArray NumberOfComponents='1' type='Float32' Name='pressure' format='ascii'>
0
0
0
0
0
0
0
0
0
0
0
0
0
0
0
0
0
0
0
0
0
0
0
0
0
0
0
0
0
0
0
0
0
0
0
0
0
0
0
0
0
0
0
0
0
0
0
0
0
0
0
0
0
0
0
0
0
0
0
0
0
0
0
0
0
0
0
0
0
0
0
0
0
0
0
0
0
0
0
0
0
0
0
0
0
0
0
0
0
0
0
0
0
0
0
0
0
0
0
0
0
0
0
0
0
0
0
0
0
0
0
0
0
0
0
0
0
0
0
0
0
0
0
0
0
0
0
0
0
0
0
0
0
0
0
0
0
0
0
0
0
0
0
0
0
0
0
0
0
0
0
0
0
0
0
0
0
0
0
0
0
0
0
0
0
0
0
0
0
0
0
0
0
0
0
0
0
0
0
0
0
0
0
0
0
0
0
0
0
0
0
0
0
0
0
0
0
0
0
0
0
0
0
0
0
0
0
0
0
0
0
0
0
0
0
0
0
0
0
0
0
0
0
0
0
0
0
0
0
0
0
0
0
0
0
0
0
0
0
0
0
0
0
0
0
0
0
0
0
0
0
0
0
0
0
0
0
0
0
0
0
0
0
0
0
0
0
0
0
0
0
0
0
0
0
0
0
0
0
0
0
0
0
0
0
0
0
0
0
0
0
0
0
0
0
0
0
0
0
0
0
0
0
0
0
0
0
0
0
0
0
0
0
0
0
0
0
0
0
0
0
0
0
0
0
0
0
0
0
0
0
0
0
0
0
0
0
0
0
0
0
0
0
0
0
0
0
0
0
0
0
0
0
0
0
0
0
0
0
0
0
0
0
0
0
0
0
0
0
0
0
0
0
0
0
0
0
0
0
0
0
0
0
0
0
0
0
0
0
0
0
0
0
0
0
0
0
0
0
0
0
0
0
0
0
0
0
0
0
0
0
0
0
0
0
0
0
0
0
0
0
0
0
0
0
0
0
0
0
0
0
0
0
0
0
0
0
0
0
0
0
0
0
0
0
0
0
0
0
0
0
0
0
0
0
0
0
0
0
0
0
0
0
0
0
0
0
0
0
0
0
0
0
0
0
0
0
0
0
0
0
0
0
0
0
0
0
0
0
0
0
0
0
0
0
0
0
0
0
0
0
0
0
0
0
0
0
0
0
0
0
0
0
0
0
0
0
0
0
0
0
0
0
0
0
0
0
0
0
0
0
0
0
0
0
0
0
0
0
0
0
0
0
0
0
0
0
0
0
0
0
0
0
0
0
0
0
0
0
0
0
0
0
0
0
0
0
0
0
0
0
0
0
0
0
0
0
0
0
0
0
0
0
0
</DataArray>
</PointData>
<Cells>
<DataArray type='Int32' Name='connectivity' format='ascii'>
0
1
2
3
4
5
6
7
8
9
10
11
12
13
14
15
16
17
18
19
20
21
22
23
24
25
26
27
28
29
30
31
32
33
34
35
36
37
38
39
40
41
42
43
44
45
46
47
48
49
50
51
52
53
54
55
56
57
58
59
60
61
62
63
64
65
66
67
68
69
70
71
72
73
74
75
76
77
78
79
80
81
82
83
84
85
86
87
88
89
90
91
92
93
94
95
96
97
98
99
100
101
102
103
104
105
106
107
108
109
110
111
112
113
114
115
116
117
118
119
120
121
122
123
124
125
126
127
128
129
130
131
132
133
134
135
136
137
138
139
140
141
142
143
144
145
146
147
148
149
150
151
152
153
154
155
156
157
158
159
160
161
162
163
164
165
166
167
168
169
170
171
172
173
174
175
176
177
178
179
180
181
182
183
184
185
186
187
188
189
190
191
192
193
194
195
196
197
198
199
200
201
202
203
204
205
206
207
208
209
210
211
212
213
214
215
216
217
218
219
220
221
222
223
224
225
226
227
228
229
230
231
232
233
234
235
236
237
238
239
240
241
242
243
244
245
246
247
248
249
250
251
252
253
254
255
256
257
258
259
260
261
262
263
264
265
266
267
268
269
270
271
272
273
274
275
276
277
278
279
280
281
282
283
284
285
286
287
288
289
290
291
292
293
294
295
296
297
298
299
300
301
302
303
304
305
306
307
308
309
310
311
312
313
314
315
316
317
318
319
320
321
322
323
324
325
326
327
328
329
330
331
332
333
334
335
336
337
338
339
340
341
342
343
344
345
346
347
348
349
350
351
352
353
354
355
356
357
358
359
360
361
362
363
364
365
366
367
368
369
370
371
372
373
374
375
376
377
378
379
380
381
382
383
384
385
386
387
388
389
390
391
392
393
394
395
396
397
398
399
400
401
402
403
404
405
406
407
408
409
410
411
412
413
414
415
416
417
418
419
420
421
422
423
424
425
426
427
428
429
430
431
432
433
434
435
436
437
438
439
440
441
442
443
444
445
446
447
448
449
450
451
452
453
454
455
456
457
458
459
460
461
462
463
464
465
466
467
468
469
470
471
472
473
474
475
476
477
478
479
480
481
482
483
484
485
486
487
488
489
490
491
492
493
494
495
496
497
498
499
500
501
502
503
504
505
506
507
508
509
510
511
512
513
514
515
516
517
518
519
520
521
522
523
524
525
526
527
528
529
530
531
532
533
534
535
536
537
538
539
540
541
542
543
544
545
546
547
548
549
550
551
552
553
554
555
556
557
558
559
560
561
562
563
564
565
566
567
568
569
570
571
572
573
574
575
576
577
578
579
580
581
582
583
</DataArray>
<DataArray type='Int32' Name='offsets' format='ascii'>
1
2
3
4
5
6
7
8
9
10
11
12
13
14
15
16
17
18
19
20
21
22
23
24
25
26
27
28
29
30
31
32
33
34
35
36
37
38
39
40
41
42
43
44
45
46
47
48
49
50
51
52
53
54
55
56
57
58
59
60
61
62
63
64
65
66
67
68
69
70
71
72
73
74
75
76
77
78
79
80
81
82
83
84
85
86
87
88
89
90
91
92
93
94
95
96
97
98
99
100
101
102
103
104
105
106
107
108
109
110
111
112
113
114
115
116
117
118
119
120
121
122
123
124
125
126
127
128
129
130
131
132
133
134
135
136
137
138
139
140
141
142
143
144
145
146
147
148
149
150
151
152
153
154
155
156
157
158
159
160
161
162
163
164
165
166
167
168
169
170
171
172
173
174
175
176
177
178
179
180
181
182
183
184
185
186
187
188
189
190
191
192
193
194
195
196
197
198
199
200
201
202
203
204
205
206
207
208
209
210
211
212
213
214
215
216
217
218
219
220
221
222
223
224
225
226
227
228
229
230
231
232
233
234
235
236
237
238
239
240
241
242
243
244
245
246
247
248
249
250
251
252
253
254
255
256
257
258
259
260
261
262
263
264
265
266
267
268
269
270
271
272
273
274
275
276
277
278
279
280
281
282
283
284
285
286
287
288
289
290
291
292
293
294
295
296
297
298
299
300
301
302
303
304
305
306
307
308
309
310
311
312
313
314
315
316
317
318
319
320
321
322
323
324
325
326
327
328
329
330
331
332
333
334
335
336
337
338
339
340
341
342
343
344
345
346
347
348
349
350
351
352
353
354
355
356
357
358
359
360
361
362
363
364
365
366
367
368
369
370
371
372
373
374
375
376
377
378
379
380
381
382
383
384
385
386
387
388
389
390
391
392
393
394
395
396
397
398
399
400
401
402
403
404
405
406
407
408
409
410
411
412
413
414
415
416
417
418
419
420
421
422
423
424
425
426
427
428
429
430
431
432
433
434
435
436
437
438
439
440
441
442
443
444
445
446
447
448
449
450
451
452
453
454
455
456
457
458
459
460
461
462
463
464
465
466
467
468
469
470
471
472
473
474
475
476
477
478
479
480
481
482
483
484
485
486
487
488
489
490
491
492
493
494
495
496
497
498
499
500
501
502
503
504
505
506
507
508
509
510
511
512
513
514
515
516
517
518
519
520
521
522
523
524
525
526
527
528
529
530
531
532
533
534
535
536
537
538
539
540
541
542
543
544
545
546
547
548
549
550
551
552
553
554
555
556
557
558
559
560
561
562
563
564
565
566
567
568
569
570
571
572
573
574
575
576
577
578
579
580
581
582
583
584
</DataArray>
<DataArray type='UInt8' Name='types' format='ascii'>
1
1
1
1
1
1
1
1
1
1
1
1
1
1
1
1
1
1
1
1
1
1
1
1
1
1
1
1
1
1
1
1
1
1
1
1
1
1
1
1
1
1
1
1
1
1
1
1
1
1
1
1
1
1
1
1
1
1
1
1
1
1
1
1
1
1
1
1
1
1
1
1
1
1
1
1
1
1
1
1
1
1
1
1
1
1
1
1
1
1
1
1
1
1
1
1
1
1
1
1
1
1
1
1
1
1
1
1
1
1
1
1
1
1
1
1
1
1
1
1
1
1
1
1
1
1
1
1
1
1
1
1
1
1
1
1
1
1
1
1
1
1
1
1
1
1
1
1
1
1
1
1
1
1
1
1
1
1
1
1
1
1
1
1
1
1
1
1
1
1
1
1
1
1
1
1
1
1
1
1
1
1
1
1
1
1
1
1
1
1
1
1
1
1
1
1
1
1
1
1
1
1
1
1
1
1
1
1
1
1
1
1
1
1
1
1
1
1
1
1
1
1
1
1
1
1
1
1
1
1
1
1
1
1
1
1
1
1
1
1
1
1
1
1
1
1
1
1
1
1
1
1
1
1
1
1
1
1
1
1
1
1
1
1
1
1
1
1
1
1
1
1
1
1
1
1
1
1
1
1
1
1
1
1
1
1
1
1
1
1
1
1
1
1
1
1
1
1
1
1
1
1
1
1
1
1
1
1
1
1
1
1
1
1
1
1
1
1
1
1
1
1
1
1
1
1
1
1
1
1
1
1
1
1
1
1
1
1
1
1
1
1
1
1
1
1
1
1
1
1
1
1
1
1
1
1
1
1
1
1
1
1
1
1
1
1
1
1
1
1
1
1
1
1
1
1
1
1
1
1
1
1
1
1
1
1
1
1
1
1
1
1
1
1
1
1
1
1
1
1
1
1
1
1
1
1
1
1
1
1
1
1
1
1
1
1
1
1
1
1
1
1
1
1
1
1
1
1
1
1
1
1
1
1
1
1
1
1
1
1
1
1
1
1
1
1
1
1
1
1
1
1
1
1
1
1
1
1
1
1
1
1
1
1
1
1
1
1
1
1
1
1
1
1
1
1
1
1
1
1
1
1
1
1
1
1
1
1
1
1
1
1
1
1
1
1
1
1
1
1
1
1
1
1
1
1
1
1
1
1
1
1
1
1
1
1
1
1
1
1
1
1
1
1
1
1
1
1
1
1
1
1
1
1
1
1
1
1
1
1
1
1
1
1
1
1
1
1
1
1
1
1
1
1
1
1
1
1
1
1
1
1
1
1
1
1
1
1
1
1
1
1
1
1
1
1
1
1
1
1
1
1
1
1
</DataArray>
</Cells>
</Piece>
</UnstructuredGrid>
</VTKFile>
