<?xml version='1.0' encoding='UTF-8'?>
<VTKFile xmlns='VTK' byte_order='LittleEndian' version='0.1' type='UnstructuredGrid'>
<UnstructuredGrid>
<Piece NumberOfCells='584' NumberOfPoints='584'>
<Points>
<DataArray NumberOfComponents='3' type='Float32' Name='Position' format='ascii'>
-0.075 -0.075 0
-0.075 -0.05 0
-0.075 -0.025 0
-0.075 0 0
-0.075 0.025 0
-0.075 0.05 0
-0.075 0.075 0
-0.075 0.1 0
-0.075 0.125 0
-0.075 0.15 0
-0.075 0.175 0
-0.075 0.2 0
-0.075 0.225 0
-0.075 0.25 0
-0.075 0.275 0
-0.075 0.3 0
-0.075 0.325 0
-0.075 0.35 0
-0.075 0.375 0
-0.075 0.4 0
-0.075 0.425 0
-0.075 0.45 0
-0.075 0.475 0
-0.075 0.5 0
-0.075 0.525 0
-0.075 0.55 0
-0.075 0.575 0
-0.075 0.6 0
-0.05 -0.075 0
-0.05 -0.05 0
-0.05 -0.025 0
-0.05 0 0
-0.05 0.025 0
-0.05 0.05 0
-0.05 0.075 0
-0.05 0.1 0
-0.05 0.125 0
-0.05 0.15 0
-0.05 0.175 0
-0.05 0.2 0
-0.05 0.225 0
-0.05 0.25 0
-0.05 0.275 0
-0.05 0.3 0
-0.05 0.325 0
-0.05 0.35 0
-0.05 0.375 0
-0.05 0.4 0
-0.05 0.425 0
-0.05 0.45 0
-0.05 0.475 0
-0.05 0.5 0
-0.05 0.525 0
-0.05 0.55 0
-0.05 0.575 0
-0.05 0.6 0
-0.025 -0.075 0
-0.025 -0.05 0
-0.025 -0.025 0
-0.025 0 0
-0.025 0.025 0
-0.025 0.05 0
-0.025 0.075 0
-0.025 0.1 0
-0.025 0.125 0
-0.025 0.15 0
-0.025 0.175 0
-0.025 0.2 0
-0.025 0.225 0
-0.025 0.25 0
-0.025 0.275 0
-0.025 0.3 0
-0.025 0.325 0
-0.025 0.35 0
-0.025 0.375 0
-0.025 0.4 0
-0.025 0.425 0
-0.025 0.45 0
-0.025 0.475 0
-0.025 0.5 0
-0.025 0.525 0
-0.025 0.55 0
-0.025 0.575 0
-0.025 0.6 0
0 -0.075 0
0 -0.05 0
0 -0.025 0
0 0 0
0 0.025 0
0 0.05 0
0 0.075 0
0 0.1 0
0 0.125 0
0 0.15 0
0 0.175 0
0 0.2 0
0 0.225 0
0 0.25 0
0 0.275 0
0 0.3 0
0 0.325 0
0 0.35 0
0 0.375 0
0 0.4 0
0 0.425 0
0 0.45 0
0 0.475 0
0 0.5 0
0 0.525 0
0 0.55 0
0 0.575 0
0 0.6 0
0.025 -0.075 0
0.025 -0.05 0
0.025 -0.025 0
0.025 0 0
-626187 384457 0
-27.1183 -61.9655 0
-76.1838 31.4541 0
42.8081 -1.16481 0
-41.6588 -36.4363 0
-2697.07 2704.05 0
159.279 -24.5246 0
-108.026 -14.847 0
13.7329 -64.5029 0
-17.4914 -42.6261 0
-32.0653 -42.1943 0
57.1479 -42.6256 0
-2160.71 -0.0921786 0
37.6101 -40.3322 0
33.7727 -472.802 0
-52.5221 43.6871 0
7.14765 3.62349 0
556.584 76.8041 0
85.0494 -3.77715 0
125.102 -14.529 0
0.05 -0.075 0
0.05 -0.05 0
0.05 -0.025 0
0.05 0 0
-6.97999e-05 57.3492 0
-110.318 -267.536 0
104.513 253.844 0
-87.9331 -158.717 0
97.4705 96.4358 0
-2387.9 3540.75 0
63.7887 -50.2154 0
-43.7024 55.568 0
74.8302 -61.6767 0
-5.56027 -34.1632 0
-3.01152 59.4384 0
152.709 8.04653 0
-16.8411 -15.2228 0
-44.3403 36.5455 0
-1.94605 -6.38896 0
38.7989 -15.5685 0
-1.39197 -8.66981 0
-39.8001 -22.4614 0
-23.7864 26.5711 0
83797.5 4159.64 0
0.075 -0.075 0
0.075 -0.05 0
0.075 -0.025 0
0.075 0 0
9.24874 59.5565 0
31.1876 -208.024 0
-27.0813 201.446 0
-3.09296 -167.811 0
-10.2171 119.292 0
37.9656 -10.7669 0
-132.628 -23.1688 0
700.874 -1045.01 0
-4229.76 -644.076 0
-15.8541 -15.9486 0
-11.3051 -60.2383 0
-6.15633 -24.0592 0
10.5897 1.89664 0
-20.9051 -23.7822 0
13.5779 16.6318 0
-1.56534 -5.63912 0
-951.757 78.8642 0
1005.55 -74.2163 0
-14.3302 -3.72639 0
4.11907 14.029 0
0.1 -0.075 0
0.1 -0.05 0
0.1 -0.025 0
0.1 0 0
8.22964 55.3245 0
99.0054 -166.292 0
-85.6715 152.877 0
420.909 -229.676 0
-105.923 121.858 0
-100.702 -4.68359 0
55.3338 -52.7784 0
-8.05282 -20.8723 0
-14.285 -20.7257 0
-89.3651 78.5539 0
31.8419 -27.0586 0
19.0861 -26.7793 0
33.9268 21.0528 0
-25.1947 -18.0292 0
-539.229 -96.8272 0
-83804.6 -4143.97 0
27.749 6.13619 0
-5.62705 -3.75247 0
7.57258 46.9133 0
-13.5624 -6.45352 0
0.125 -0.075 0
0.125 -0.05 0
0.125 -0.025 0
0.125 0 0
3.76963 53.6102 0
93.2674 -106.282 0
-70.5337 84.2255 0
28.4212 -72.281 0
1.53622 -178.522 0
-42.529 -6.95165 0
1.15961 -16.998 0
-29.177 -14.3626 0
145.414 -186.095 0
46.2678 -8.01247 0
2.49512 -5.08512 0
5.77871 0.0174867 0
3.39509 -1.05567 0
-7.24044 2.80413 0
5.56982 3.44713 0
3.9589 -30.3098 0
78.6895 154.704 0
-61.5431 -232.615 0
-9.23272 -21.0066 0
13.1884 21.4068 0
0.15 -0.075 0
0.15 -0.05 0
0.15 -0.025 0
0.15 0 0
4.04807 63.5706 0
122.792 -112.141 0
-51.1668 38.2998 0
-20.0448 -68.9617 0
-82.4946 -1.77643 0
-102.77 -53.3337 0
55.2388 29.6077 0
21.3903 5.15899 0
-12.2786 -1.12424 0
-31.7906 -6.61988 0
0.156173 0.7663 0
1.90553 -6.04171 0
8.34056 -6.74198 0
24.6025 -52.1788 0
-1.87182 8.69527 0
3.54067 8.53146 0
8.7461 3.01679 0
-4.22399 6.47968 0
11.7747 24.0027 0
-13.1056 11.6308 0
0.175 -0.075 0
0.175 -0.05 0
0.175 -0.025 0
0.175 0 0
5.31391 82.607 0
126.798 -55.3045 0
-427.952 28.2081 0
-71.5191 39.0864 0
-31.3942 -2.15471 0
32.6511 -92.1289 0
-3.62056 -9.19666 0
-4.16689 -2.59883 0
-17.2047 -84.9192 0
-30.8905 42.501 0
4.5074 1.02596 0
11.1172 -4.44163 0
4.21102 -1.7011 0
7.42992 -21.6951 0
-61.123 109.694 0
8.19867 10.208 0
12.4145 10.3355 0
24.1664 -3.54947 0
-2.82147 10.8829 0
24.1653 -18.9233 0
0.2 -0.075 0
0.2 -0.05 0
0.2 -0.025 0
0.2 0 0
6.76674 116.441 0
12360.9 2296.37 0
-27.5487 -38.7791 0
897067 1.1659e+06 0
50.4229 46.7096 0
10.1764 29.1857 0
-2.125 -7.81863 0
-5.18811 -7.08661 0
-1139.62 242.866 0
48.8189 -21.5564 0
25.0605 5.81129 0
11.7089 -13.4032 0
34.5912 -2.98403 0
23.9715 -1.22367 0
30.1769 10.0628 0
19.5055 7.1582 0
-46.6688 -8.41739 0
14.2262 5.13409 0
2.75689 11.8645 0
0.53612 11.939 0
0.225 -0.075 0
0.225 -0.05 0
0.225 -0.025 0
0.225 0 0
9.32213 223.551 0
-142.331 -24.136 0
39.0751 -43.1465 0
26.469 10.1176 0
-123.905 189.389 0
-379.19 97.4953 0
1671.58 23.5984 0
1121.52 -217.948 0
10.7369 -8.5071 0
4.90242 2.77042 0
26.055 1.65014 0
25.3312 1.49357 0
14.7086 1.86306 0
-24595.5 15222.8 0
10.0003 37.564 0
-10800.4 -2879 0
-255.527 18.6033 0
8.58467 3.71755 0
4.35558 1.35556 0
1.5727 16.5507 0
0.25 -0.075 0
0.25 -0.05 0
0.25 -0.025 0
0.25 0 0
27.813 399.369 0
21.475 0.294188 0
338.939 -49.165 0
22.8142 -7.77172 0
156.542 -315.066 0
-896846 -1.16592e+06 0
34.7963 60.0768 0
34.4167 19.4413 0
26.7791 -2.76087 0
13.0784 -25.5146 0
15.2407 -10.7689 0
19.6567 -8.67108 0
29540.5 17353.2 0
14.9027 -5.31194 0
7.46458 -2.89941 0
9.97397 0.41769 0
8826.95 -5434.72 0
0.416659 8.46873 0
262.61 -8.32824 0
10806.1 2895.42 0
0.275 -0.075 0
0.275 -0.05 0
0.275 -0.025 0
0.275 0 0
0.3 -0.075 0
0.3 -0.05 0
0.3 -0.025 0
0.3 0 0
0.325 -0.075 0
0.325 -0.05 0
0.325 -0.025 0
0.325 0 0
0.35 -0.075 0
0.35 -0.05 0
0.35 -0.025 0
0.35 0 0
0.375 -0.075 0
0.375 -0.05 0
0.375 -0.025 0
0.375 0 0
0.4 -0.075 0
0.4 -0.05 0
0.4 -0.025 0
0.4 0 0
0.425 -0.075 0
0.425 -0.05 0
0.425 -0.025 0
0.425 0 0
0.45 -0.075 0
0.45 -0.05 0
0.45 -0.025 0
0.45 0 0
0.475 -0.075 0
0.475 -0.05 0
0.475 -0.025 0
0.475 0 0
0.5 -0.075 0
0.5 -0.05 0
0.5 -0.025 0
0.5 0 0
0.525 -0.075 0
0.525 -0.05 0
0.525 -0.025 0
0.525 0 0
0.55 -0.075 0
0.55 -0.05 0
0.55 -0.025 0
0.55 0 0
0.575 -0.075 0
0.575 -0.05 0
0.575 -0.025 0
0.575 0 0
0.6 -0.075 0
0.6 -0.05 0
0.6 -0.025 0
0.6 0 0
0.625 -0.075 0
0.625 -0.05 0
0.625 -0.025 0
0.625 0 0
0.65 -0.075 0
0.65 -0.05 0
0.65 -0.025 0
0.65 0 0
0.675 -0.075 0
0.675 -0.05 0
0.675 -0.025 0
0.675 0 0
0.7 -0.075 0
0.7 -0.05 0
0.7 -0.025 0
0.7 0 0
0.725 -0.075 0
0.725 -0.05 0
0.725 -0.025 0
0.725 0 0
0.75 -0.075 0
0.75 -0.05 0
0.75 -0.025 0
0.75 0 0
0.775 -0.075 0
0.775 -0.05 0
0.775 -0.025 0
0.775 0 0
0.8 -0.075 0
0.8 -0.05 0
0.8 -0.025 0
0.8 0 0
0.825 -0.075 0
0.825 -0.05 0
0.825 -0.025 0
0.825 0 0
0.85 -0.075 0
0.85 -0.05 0
0.85 -0.025 0
0.85 0 0
0.875 -0.075 0
0.875 -0.05 0
0.875 -0.025 0
0.875 0 0
0.9 -0.075 0
0.9 -0.05 0
0.9 -0.025 0
0.9 0 0
0.925 -0.075 0
0.925 -0.05 0
0.925 -0.025 0
0.925 0 0
0.95 -0.075 0
0.95 -0.05 0
0.95 -0.025 0
0.95 0 0
0.975 -0.075 0
0.975 -0.05 0
0.975 -0.025 0
0.975 0 0
1 -0.075 0
1 -0.05 0
1 -0.025 0
1 0 0
1.025 -0.075 0
1.025 -0.05 0
1.025 -0.025 0
1.025 0 0
1.025 0.025 0
1.025 0.05 0
1.025 0.075 0
1.025 0.1 0
1.025 0.125 0
1.025 0.15 0
1.025 0.175 0
1.025 0.2 0
1.025 0.225 0
1.025 0.25 0
1.025 0.275 0
1.025 0.3 0
1.025 0.325 0
1.025 0.35 0
1.025 0.375 0
1.025 0.4 0
1.025 0.425 0
1.025 0.45 0
1.025 0.475 0
1.025 0.5 0
1.025 0.525 0
1.025 0.55 0
1.025 0.575 0
1.025 0.6 0
1.05 -0.075 0
1.05 -0.05 0
1.05 -0.025 0
1.05 0 0
1.05 0.025 0
1.05 0.05 0
1.05 0.075 0
1.05 0.1 0
1.05 0.125 0
1.05 0.15 0
1.05 0.175 0
1.05 0.2 0
1.05 0.225 0
1.05 0.25 0
1.05 0.275 0
1.05 0.3 0
1.05 0.325 0
1.05 0.35 0
1.05 0.375 0
1.05 0.4 0
1.05 0.425 0
1.05 0.45 0
1.05 0.475 0
1.05 0.5 0
1.05 0.525 0
1.05 0.55 0
1.05 0.575 0
1.05 0.6 0
1.075 -0.075 0
1.075 -0.05 0
1.075 -0.025 0
1.075 0 0
1.075 0.025 0
1.075 0.05 0
1.075 0.075 0
1.075 0.1 0
1.075 0.125 0
1.075 0.15 0
1.075 0.175 0
1.075 0.2 0
1.075 0.225 0
1.075 0.25 0
1.075 0.275 0
1.075 0.3 0
1.075 0.325 0
1.075 0.35 0
1.075 0.375 0
1.075 0.4 0
1.075 0.425 0
1.075 0.45 0
1.075 0.475 0
1.075 0.5 0
1.075 0.525 0
1.075 0.55 0
1.075 0.575 0
1.075 0.6 0
1.1 -0.075 0
1.1 -0.05 0
1.1 -0.025 0
1.1 0 0
1.1 0.025 0
1.1 0.05 0
1.1 0.075 0
1.1 0.1 0
1.1 0.125 0
1.1 0.15 0
1.1 0.175 0
1.1 0.2 0
1.1 0.225 0
1.1 0.25 0
1.1 0.275 0
1.1 0.3 0
1.1 0.325 0
1.1 0.35 0
1.1 0.375 0
1.1 0.4 0
1.1 0.425 0
1.1 0.45 0
1.1 0.475 0
1.1 0.5 0
1.1 0.525 0
1.1 0.55 0
1.1 0.575 0
1.1 0.6 0
</DataArray>
</Points>
<PointData>
<DataArray NumberOfComponents='1' type='Int32' Name='ParticleType' format='ascii'>
2
2
2
2
2
2
2
2
2
2
2
2
2
2
2
2
2
2
2
2
2
2
2
2
2
2
1
1
2
2
2
2
2
2
2
2
2
2
2
2
2
2
2
2
2
2
2
2
2
2
2
2
2
2
1
1
2
2
1
1
1
1
1
1
1
1
1
1
1
1
1
1
1
1
1
1
1
1
1
1
1
1
1
1
2
2
1
1
1
1
1
1
1
1
1
1
1
1
1
1
1
1
1
1
1
1
1
1
1
1
1
1
2
2
1
1
0
0
0
0
0
0
0
0
0
0
0
0
0
0
0
0
0
0
0
0
2
2
1
1
0
0
0
0
0
0
0
0
0
0
0
0
0
0
0
0
0
0
0
0
2
2
1
1
0
0
0
0
0
0
0
0
0
0
0
0
0
0
0
0
0
0
0
0
2
2
1
1
0
0
0
0
0
0
0
0
0
0
0
0
0
0
0
0
0
0
0
0
2
2
1
1
0
0
0
0
0
0
0
0
0
0
0
0
0
0
0
0
0
0
0
0
2
2
1
1
0
0
0
0
0
0
0
0
0
0
0
0
0
0
0
0
0
0
0
0
2
2
1
1
0
0
0
0
0
0
0
0
0
0
0
0
0
0
0
0
0
0
0
0
2
2
1
1
0
0
0
0
0
0
0
0
0
0
0
0
0
0
0
0
0
0
0
0
2
2
1
1
0
0
0
0
0
0
0
0
0
0
0
0
0
0
0
0
0
0
0
0
2
2
1
1
0
0
0
0
0
0
0
0
0
0
0
0
0
0
0
0
0
0
0
0
2
2
1
1
2
2
1
1
2
2
1
1
2
2
1
1
2
2
1
1
2
2
1
1
2
2
1
1
2
2
1
1
2
2
1
1
2
2
1
1
2
2
1
1
2
2
1
1
2
2
1
1
2
2
1
1
2
2
1
1
2
2
1
1
2
2
1
1
2
2
1
1
2
2
1
1
2
2
1
1
2
2
1
1
2
2
1
1
2
2
1
1
2
2
1
1
2
2
1
1
2
2
1
1
2
2
1
1
2
2
1
1
2
2
1
1
2
2
1
1
2
2
1
1
1
1
1
1
1
1
1
1
1
1
1
1
1
1
1
1
1
1
1
1
1
1
1
1
2
2
1
1
1
1
1
1
1
1
1
1
1
1
1
1
1
1
1
1
1
1
1
1
1
1
1
1
2
2
2
2
2
2
2
2
2
2
2
2
2
2
2
2
2
2
2
2
2
2
2
2
2
2
1
1
2
2
2
2
2
2
2
2
2
2
2
2
2
2
2
2
2
2
2
2
2
2
2
2
2
2
1
1
</DataArray>
<DataArray NumberOfComponents='1' type='Float32' Name='Velocity' format='ascii'>
0
0
0
0
0
0
0
0
0
0
0
0
0
0
0
0
0
0
0
0
0
0
0
0
0
0
0
0
0
0
0
0
0
0
0
0
0
0
0
0
0
0
0
0
0
0
0
0
0
0
0
0
0
0
0
0
0
0
0
0
0
0
0
0
0
0
0
0
0
0
0
0
0
0
0
0
0
0
0
0
0
0
0
0
0
0
0
0
0
0
0
0
0
0
0
0
0
0
0
0
0
0
0
0
0
0
0
0
0
0
0
0
0
0
0
0
661970
66.013
72.6473
39.2433
53.8723
3452.35
146.773
99.6114
65.204
46.9874
52.6234
68.1411
1958.96
54.2731
434.655
59.0877
6.89584
508.068
77.2806
114.278
0
0
0
0
45.7157
265.82
242.215
168.928
120.259
3863.78
77.0058
59.7348
91.5184
36.9031
48.2987
138.33
24.7546
48.7114
11.6091
40.236
13.658
44.5401
28.3287
76972.6
0
0
0
0
48.4084
194.934
177.671
157.275
102.765
37.5039
123.099
1144.35
3879.85
24.7085
61.1163
28.0313
10.3074
33.2098
15.372
10.9334
863.916
912.814
15.9703
7.7095
0
0
0
0
44.4985
179.052
153.151
436.449
141.986
91.7509
73.0939
25.5812
27.638
104.225
42.3541
34.5161
33.4346
31.7803
497.399
76979.4
25.01
10.6184
37.2464
17.0916
0
0
0
0
42.4975
131.49
94.9021
75.378
167.317
40.3958
20.9927
32.4342
218.329
43.754
10.4701
7.61158
7.25755
7.40097
5.54637
33.3751
152.152
225.298
26.2651
18.311
0
0
0
0
51.3886
153.461
54.6026
70.3227
75.1661
107.638
54.1895
19.2844
13.0695
31.215
4.94767
11.2492
13.92
57.4447
2.86001
3.62783
8.32479
4.02082
19.0771
12.9166
0
0
0
0
68.4213
126.757
387.483
71.4949
29.5393
95.4713
14.3224
8.86484
84.0938
43.3206
6.1255
13.8475
8.08655
26.2045
108.982
8.03605
11.6023
23.5055
4.87291
32.135
0
0
0
0
98.6505
11366
47.542
1.33008e+06
58.5048
22.7272
12.8246
12.965
1053.53
50.7544
22.5026
20.6368
32.2579
22.5712
27.3527
17.4804
44.4809
12.7271
5.42504
4.96478
0
0
0
0
194.28
131.317
56.4869
23.9035
200.201
352.898
1515.49
1034.81
16.3693
5.24732
23.7385
23.1286
13.6913
26681.2
30.1411
10428.8
236.385
7.85892
5.90585
9.2351
0
0
0
0
351.952
19.7657
309.134
23.8465
322.909
1.32998e+06
57.9016
33.1192
25.3028
30.9817
20.5074
22.149
32378.7
16.9539
10.5713
10.2758
9565.24
2.00304
242.243
10433.9
0
0
0
0
0
0
0
0
0
0
0
0
0
0
0
0
0
0
0
0
0
0
0
0
0
0
0
0
0
0
0
0
0
0
0
0
0
0
0
0
0
0
0
0
0
0
0
0
0
0
0
0
0
0
0
0
0
0
0
0
0
0
0
0
0
0
0
0
0
0
0
0
0
0
0
0
0
0
0
0
0
0
0
0
0
0
0
0
0
0
0
0
0
0
0
0
0
0
0
0
0
0
0
0
0
0
0
0
0
0
0
0
0
0
0
0
0
0
0
0
0
0
0
0
0
0
0
0
0
0
0
0
0
0
0
0
0
0
0
0
0
0
0
0
0
0
0
0
0
0
0
0
0
0
0
0
0
0
0
0
0
0
0
0
0
0
0
0
0
0
0
0
0
0
0
0
0
0
0
0
0
0
0
0
0
0
0
0
0
0
0
0
0
0
0
0
0
0
0
0
0
0
0
0
0
0
0
0
0
0
0
0
0
0
0
0
0
0
0
0
0
0
0
0
0
0
0
0
0
0
0
0
</DataArray>
<DataArray NumberOfComponents='1' type='Float32' Name='pressure' format='ascii'>
0
0
0
0
0
0
0
0
0
0
0
0
0
0
0
0
0
0
0
0
0
0
0
0
0
0
0
0
0
0
0
0
0
0
0
0
0
0
0
0
0
0
0
0
0
0
0
0
0
0
0
0
0
0
0
0
0
0
0
0
0
0
0
0
0
0
0
0
0
0
0
0
0
0
0
0
0
0
0
0
0
0
0
0
0
0
0
0
0
0
0
0
0
0
0
0
0
0
0
0
0
0
0
0
0
0
0
0
0
0
0
0
0
0
0
0
0
0
0
0
0
0
0
0
0
0
0
0
0
0
0
0
0
0
0
0
0
0
0
0
0
0
0
0
0
0
0
0
0
0
0
0
0
0
0
0
0
0
0
0
0
0
0
0
0
0
0
0
0
0
0
0
0
0
0
0
0
0
0
0
0
0
0
0
0
0
0
0
0
0
0
0
0
0
0
0
0
0
0
0
0
0
0
0
0
0
0
0
0
0
0
0
0
0
0
0
0
0
0
0
0
0
0
0
0
0
0
0
0
0
0
0
0
0
0
0
0
0
0
0
0
0
0
0
0
0
0
0
0
0
0
0
0
0
0
0
0
0
0
0
0
0
0
0
0
0
0
0
0
0
0
0
0
0
0
0
0
0
0
0
0
0
0
0
0
0
0
0
0
0
0
0
0
0
0
0
0
0
0
0
0
0
0
0
0
0
0
0
0
0
0
0
0
0
0
0
0
0
0
0
0
0
0
0
0
0
0
0
0
0
0
0
0
0
0
0
0
0
0
0
0
0
0
0
0
0
0
0
0
0
0
0
0
0
0
0
0
0
0
0
0
0
0
0
0
0
0
0
0
0
0
0
0
0
0
0
0
0
0
0
0
0
0
0
0
0
0
0
0
0
0
0
0
0
0
0
0
0
0
0
0
0
0
0
0
0
0
0
0
0
0
0
0
0
0
0
0
0
0
0
0
0
0
0
0
0
0
0
0
0
0
0
0
0
0
0
0
0
0
0
0
0
0
0
0
0
0
0
0
0
0
0
0
0
0
0
0
0
0
0
0
0
0
0
0
0
0
0
0
0
0
0
0
0
0
0
0
0
0
0
0
0
0
0
0
0
0
0
0
0
0
0
0
0
0
0
0
0
0
0
0
0
0
0
0
0
0
0
0
0
0
0
0
0
0
0
0
0
0
0
0
0
0
0
0
0
0
0
0
0
0
0
0
0
0
0
0
0
0
0
0
0
0
0
0
0
0
0
0
0
0
0
0
0
0
0
0
0
0
0
0
0
0
0
0
0
0
0
0
0
0
0
0
0
0
0
0
0
0
0
0
0
0
0
</DataArray>
</PointData>
<Cells>
<DataArray type='Int32' Name='connectivity' format='ascii'>
0
1
2
3
4
5
6
7
8
9
10
11
12
13
14
15
16
17
18
19
20
21
22
23
24
25
26
27
28
29
30
31
32
33
34
35
36
37
38
39
40
41
42
43
44
45
46
47
48
49
50
51
52
53
54
55
56
57
58
59
60
61
62
63
64
65
66
67
68
69
70
71
72
73
74
75
76
77
78
79
80
81
82
83
84
85
86
87
88
89
90
91
92
93
94
95
96
97
98
99
100
101
102
103
104
105
106
107
108
109
110
111
112
113
114
115
116
117
118
119
120
121
122
123
124
125
126
127
128
129
130
131
132
133
134
135
136
137
138
139
140
141
142
143
144
145
146
147
148
149
150
151
152
153
154
155
156
157
158
159
160
161
162
163
164
165
166
167
168
169
170
171
172
173
174
175
176
177
178
179
180
181
182
183
184
185
186
187
188
189
190
191
192
193
194
195
196
197
198
199
200
201
202
203
204
205
206
207
208
209
210
211
212
213
214
215
216
217
218
219
220
221
222
223
224
225
226
227
228
229
230
231
232
233
234
235
236
237
238
239
240
241
242
243
244
245
246
247
248
249
250
251
252
253
254
255
256
257
258
259
260
261
262
263
264
265
266
267
268
269
270
271
272
273
274
275
276
277
278
279
280
281
282
283
284
285
286
287
288
289
290
291
292
293
294
295
296
297
298
299
300
301
302
303
304
305
306
307
308
309
310
311
312
313
314
315
316
317
318
319
320
321
322
323
324
325
326
327
328
329
330
331
332
333
334
335
336
337
338
339
340
341
342
343
344
345
346
347
348
349
350
351
352
353
354
355
356
357
358
359
360
361
362
363
364
365
366
367
368
369
370
371
372
373
374
375
376
377
378
379
380
381
382
383
384
385
386
387
388
389
390
391
392
393
394
395
396
397
398
399
400
401
402
403
404
405
406
407
408
409
410
411
412
413
414
415
416
417
418
419
420
421
422
423
424
425
426
427
428
429
430
431
432
433
434
435
436
437
438
439
440
441
442
443
444
445
446
447
448
449
450
451
452
453
454
455
456
457
458
459
460
461
462
463
464
465
466
467
468
469
470
471
472
473
474
475
476
477
478
479
480
481
482
483
484
485
486
487
488
489
490
491
492
493
494
495
496
497
498
499
500
501
502
503
504
505
506
507
508
509
510
511
512
513
514
515
516
517
518
519
520
521
522
523
524
525
526
527
528
529
530
531
532
533
534
535
536
537
538
539
540
541
542
543
544
545
546
547
548
549
550
551
552
553
554
555
556
557
558
559
560
561
562
563
564
565
566
567
568
569
570
571
572
573
574
575
576
577
578
579
580
581
582
583
</DataArray>
<DataArray type='Int32' Name='offsets' format='ascii'>
1
2
3
4
5
6
7
8
9
10
11
12
13
14
15
16
17
18
19
20
21
22
23
24
25
26
27
28
29
30
31
32
33
34
35
36
37
38
39
40
41
42
43
44
45
46
47
48
49
50
51
52
53
54
55
56
57
58
59
60
61
62
63
64
65
66
67
68
69
70
71
72
73
74
75
76
77
78
79
80
81
82
83
84
85
86
87
88
89
90
91
92
93
94
95
96
97
98
99
100
101
102
103
104
105
106
107
108
109
110
111
112
113
114
115
116
117
118
119
120
121
122
123
124
125
126
127
128
129
130
131
132
133
134
135
136
137
138
139
140
141
142
143
144
145
146
147
148
149
150
151
152
153
154
155
156
157
158
159
160
161
162
163
164
165
166
167
168
169
170
171
172
173
174
175
176
177
178
179
180
181
182
183
184
185
186
187
188
189
190
191
192
193
194
195
196
197
198
199
200
201
202
203
204
205
206
207
208
209
210
211
212
213
214
215
216
217
218
219
220
221
222
223
224
225
226
227
228
229
230
231
232
233
234
235
236
237
238
239
240
241
242
243
244
245
246
247
248
249
250
251
252
253
254
255
256
257
258
259
260
261
262
263
264
265
266
267
268
269
270
271
272
273
274
275
276
277
278
279
280
281
282
283
284
285
286
287
288
289
290
291
292
293
294
295
296
297
298
299
300
301
302
303
304
305
306
307
308
309
310
311
312
313
314
315
316
317
318
319
320
321
322
323
324
325
326
327
328
329
330
331
332
333
334
335
336
337
338
339
340
341
342
343
344
345
346
347
348
349
350
351
352
353
354
355
356
357
358
359
360
361
362
363
364
365
366
367
368
369
370
371
372
373
374
375
376
377
378
379
380
381
382
383
384
385
386
387
388
389
390
391
392
393
394
395
396
397
398
399
400
401
402
403
404
405
406
407
408
409
410
411
412
413
414
415
416
417
418
419
420
421
422
423
424
425
426
427
428
429
430
431
432
433
434
435
436
437
438
439
440
441
442
443
444
445
446
447
448
449
450
451
452
453
454
455
456
457
458
459
460
461
462
463
464
465
466
467
468
469
470
471
472
473
474
475
476
477
478
479
480
481
482
483
484
485
486
487
488
489
490
491
492
493
494
495
496
497
498
499
500
501
502
503
504
505
506
507
508
509
510
511
512
513
514
515
516
517
518
519
520
521
522
523
524
525
526
527
528
529
530
531
532
533
534
535
536
537
538
539
540
541
542
543
544
545
546
547
548
549
550
551
552
553
554
555
556
557
558
559
560
561
562
563
564
565
566
567
568
569
570
571
572
573
574
575
576
577
578
579
580
581
582
583
584
</DataArray>
<DataArray type='UInt8' Name='types' format='ascii'>
1
1
1
1
1
1
1
1
1
1
1
1
1
1
1
1
1
1
1
1
1
1
1
1
1
1
1
1
1
1
1
1
1
1
1
1
1
1
1
1
1
1
1
1
1
1
1
1
1
1
1
1
1
1
1
1
1
1
1
1
1
1
1
1
1
1
1
1
1
1
1
1
1
1
1
1
1
1
1
1
1
1
1
1
1
1
1
1
1
1
1
1
1
1
1
1
1
1
1
1
1
1
1
1
1
1
1
1
1
1
1
1
1
1
1
1
1
1
1
1
1
1
1
1
1
1
1
1
1
1
1
1
1
1
1
1
1
1
1
1
1
1
1
1
1
1
1
1
1
1
1
1
1
1
1
1
1
1
1
1
1
1
1
1
1
1
1
1
1
1
1
1
1
1
1
1
1
1
1
1
1
1
1
1
1
1
1
1
1
1
1
1
1
1
1
1
1
1
1
1
1
1
1
1
1
1
1
1
1
1
1
1
1
1
1
1
1
1
1
1
1
1
1
1
1
1
1
1
1
1
1
1
1
1
1
1
1
1
1
1
1
1
1
1
1
1
1
1
1
1
1
1
1
1
1
1
1
1
1
1
1
1
1
1
1
1
1
1
1
1
1
1
1
1
1
1
1
1
1
1
1
1
1
1
1
1
1
1
1
1
1
1
1
1
1
1
1
1
1
1
1
1
1
1
1
1
1
1
1
1
1
1
1
1
1
1
1
1
1
1
1
1
1
1
1
1
1
1
1
1
1
1
1
1
1
1
1
1
1
1
1
1
1
1
1
1
1
1
1
1
1
1
1
1
1
1
1
1
1
1
1
1
1
1
1
1
1
1
1
1
1
1
1
1
1
1
1
1
1
1
1
1
1
1
1
1
1
1
1
1
1
1
1
1
1
1
1
1
1
1
1
1
1
1
1
1
1
1
1
1
1
1
1
1
1
1
1
1
1
1
1
1
1
1
1
1
1
1
1
1
1
1
1
1
1
1
1
1
1
1
1
1
1
1
1
1
1
1
1
1
1
1
1
1
1
1
1
1
1
1
1
1
1
1
1
1
1
1
1
1
1
1
1
1
1
1
1
1
1
1
1
1
1
1
1
1
1
1
1
1
1
1
1
1
1
1
1
1
1
1
1
1
1
1
1
1
1
1
1
1
1
1
1
1
1
1
1
1
1
1
1
1
1
1
1
1
1
1
1
1
1
1
1
1
1
1
1
1
1
1
1
1
1
1
1
1
1
1
1
1
1
1
1
1
1
1
1
1
1
1
1
1
1
1
1
1
1
1
1
1
1
1
1
1
1
1
1
1
1
1
1
1
1
1
</DataArray>
</Cells>
</Piece>
</UnstructuredGrid>
</VTKFile>
