<?xml version='1.0' encoding='UTF-8'?>
<VTKFile xmlns='VTK' byte_order='LittleEndian' version='0.1' type='UnstructuredGrid'>
<UnstructuredGrid>
<Piece NumberOfCells='584' NumberOfPoints='584'>
<Points>
<DataArray NumberOfComponents='3' type='Float32' Name='Position' format='ascii'>
-0.075 0 -0.075
-0.075 0 -0.05
-0.075 0 -0.025
-0.075 0 0
-0.075 0 0.025
-0.075 0 0.05
-0.075 0 0.075
-0.075 0 0.1
-0.075 0 0.125
-0.075 0 0.15
-0.075 0 0.175
-0.075 0 0.2
-0.075 0 0.225
-0.075 0 0.25
-0.075 0 0.275
-0.075 0 0.3
-0.075 0 0.325
-0.075 0 0.35
-0.075 0 0.375
-0.075 0 0.4
-0.075 0 0.425
-0.075 0 0.45
-0.075 0 0.475
-0.075 0 0.5
-0.075 0 0.525
-0.075 0 0.55
-0.075 0 0.575
-0.075 0 0.6
-0.05 0 -0.075
-0.05 0 -0.05
-0.05 0 -0.025
-0.05 0 0
-0.05 0 0.025
-0.05 0 0.05
-0.05 0 0.075
-0.05 0 0.1
-0.05 0 0.125
-0.05 0 0.15
-0.05 0 0.175
-0.05 0 0.2
-0.05 0 0.225
-0.05 0 0.25
-0.05 0 0.275
-0.05 0 0.3
-0.05 0 0.325
-0.05 0 0.35
-0.05 0 0.375
-0.05 0 0.4
-0.05 0 0.425
-0.05 0 0.45
-0.05 0 0.475
-0.05 0 0.5
-0.05 0 0.525
-0.05 0 0.55
-0.05 0 0.575
-0.05 0 0.6
-0.025 0 -0.075
-0.025 0 -0.05
-0.025 0 -0.025
-0.025 0 0
-0.025 0 0.025
-0.025 0 0.05
-0.025 0 0.075
-0.025 0 0.1
-0.025 0 0.125
-0.025 0 0.15
-0.025 0 0.175
-0.025 0 0.2
-0.025 0 0.225
-0.025 0 0.25
-0.025 0 0.275
-0.025 0 0.3
-0.025 0 0.325
-0.025 0 0.35
-0.025 0 0.375
-0.025 0 0.4
-0.025 0 0.425
-0.025 0 0.45
-0.025 0 0.475
-0.025 0 0.5
-0.025 0 0.525
-0.025 0 0.55
-0.025 0 0.575
-0.025 0 0.6
0 0 -0.075
0 0 -0.05
0 0 -0.025
0 0 0
0 0 0.025
0 0 0.05
0 0 0.075
0 0 0.1
0 0 0.125
0 0 0.15
0 0 0.175
0 0 0.2
0 0 0.225
0 0 0.25
0 0 0.275
0 0 0.3
0 0 0.325
0 0 0.35
0 0 0.375
0 0 0.4
0 0 0.425
0 0 0.45
0 0 0.475
0 0 0.5
0 0 0.525
0 0 0.55
0 0 0.575
0 0 0.6
0.025 0 -0.075
0.025 0 -0.05
0.025 0 -0.025
0.025 0 0
0.37397 0 1.45997
0.125403 0 0.0706818
-2.01554 0 -0.0657555
0.0259112 0 0.229909
-0.83459 0 5.86058
0.0161442 0 0.0571547
0.727291 0 0.035275
1998.36 0 -2425.27
-6.13132 0 33.4101
0.28915 0 0.625592
0.341328 0 0.0451799
0.680882 0 0.271701
0.207103 0 0.502891
298.709 0 296.184
0.263509 0 0.0327955
-21.8452 0 2.29784
0.187128 0 0.181365
0.577827 0 0.0802441
0.759367 0 0.355266
0.603019 0 0.0487936
0.05 0 -0.075
0.05 0 -0.05
0.05 0 -0.025
0.05 0 0
0.237097 0 0.381819
0.303619 0 3.81953
-35.0191 0 22.6891
-5.35819 0 1.11864
0.395628 0 1.52233
0.0285311 0 -5.30546
0.646495 0 0.0345343
-288.512 0 -1057.09
0.283162 0 0.0456004
0.344213 0 0.533814
-1996.5 0 2423.06
0.25594 0 0.0417727
0.0458653 0 0.0958884
-65.0579 0 -68.7243
0.0592341 0 0.318401
0.241798 0 0.0873133
-9.95923 0 -7.16092
0.695083 0 0.0357563
0.241207 0 0.555339
0.116536 0 0.021386
0.075 0 -0.075
0.075 0 -0.05
0.075 0 -0.025
0.075 0 0
7.81936 0 5.67785
0.566825 0 0.901564
-30.9162 0 -195.116
-5.72988 0 -13.5058
-77.1841 0 -7.1191
-32.1447 0 -0.886801
0.835525 0 0.0293827
22.9106 0 7.96927
0.823233 0 0.201432
0.746734 0 0.19124
0.245052 0 0.0165084
-6.81426 0 7.02739
-1.39723 0 3.95453
2.53954 0 -14.8177
1.9878 0 3.24137
0.478311 0 0.428008
1.30668 0 2.48559
0.195395 0 0.0179065
-0.0640026 0 -22.6914
200.627 0 59.7941
0.1 0 -0.075
0.1 0 -0.05
0.1 0 -0.025
0.1 0 0
7.30562 0 -21.4942
-1.60745 0 10.0933
0.700366 0 -3.96689
0.163351 0 0.0111335
-112.216 0 -74.2397
50.5579 0 -83.734
-18.3417 0 -22.7809
0.429764 0 -5.30159
101.774 0 18.0525
72.927 0 -22.8505
0.791905 0 0.0138917
1.11286e+06 0 -101083
0.858349 0 0.0355207
7.19305 0 11.6005
-65.0902 0 13.9957
0.00990192 0 0.18633
277.963 0 1046.55
0.317665 0 0.0873615
-14.5643 0 -17.1289
0.181899 0 0.142077
0.125 0 -0.075
0.125 0 -0.05
0.125 0 -0.025
0.125 0 0
0.0842429 0 8.1492
0.913855 0 -0.0108517
-0.224684 0 1.6452
0.420157 0 0.62364
30.9792 0 2.52844
-30.2451 0 13.1201
1.66842 0 22.282
0.870104 0 0.0213487
-0.15843 0 2.7847
-8.39007 0 17.6613
2.0072 0 0.466728
0.860939 0 -0.0109351
-0.21156 0 1.59122
0.970659 0 0.180501
176.842 0 -337.657
1.70617 0 -13.9739
-71.6894 0 -126.946
-27.2965 0 -25.0636
-14.0086 0 -6.70318
0.313012 0 3.92428
0.15 0 -0.075
0.15 0 -0.05
0.15 0 -0.025
0.15 0 0
10.942 0 -35.9689
-42.1696 0 -36.2027
0.678109 0 1.85144
-4.82717 0 19.9616
0.289147 0 0.728831
45.8105 0 38.8593
9.11455 0 2.8997
16960.4 0 -3761.55
-0.848512 0 1.34815
-1.7233 0 2.92417
0.954366 0 1.16411
1.3678 0 -10.4122
0.915609 0 0.0218844
0.0503581 0 0.114976
0.944776 0 0.57486
-1.11286e+06 0 101087
0.423313 0 1.87502
5.2042 0 6.809
-188.938 0 -55.8312
111.199 0 70.0783
0.175 0 -0.075
0.175 0 -0.05
0.175 0 -0.025
0.175 0 0
-16.4708 0 31.7245
-14.6 0 -10.2969
-5.1478 0 17.7796
24.2177 0 26.6136
33.5453 0 194.12
-1.56066 0 1.08988
-17.3168 0 -33.8068
90.6313 0 -143.068
-133.785 0 250.838
22.0607 0 0.707361
0.81734 0 0.426318
0.590939 0 0.0909118
-2.37307 0 14.7344
16.5379 0 -27.6231
0.014004 0 0.758443
-2.82116 0 12.1693
-6.49412 0 -17.455
0.686877 0 0.0141312
-1.31208 0 12.664
-297.454 0 -295.006
0.2 0 -0.075
0.2 0 -0.05
0.2 0 -0.025
0.2 0 0
-90.3553 0 -110.18
0.426758 0 1.16452
686.121 0 -226.428
17.2698 0 -9.55066
0.730183 0 0.228482
0.150313 0 0.0226641
63.9581 0 70.529
0.715075 0 2.15012
-0.0594342 0 1.21656
-0.515122 0 2.85201
-10.2823 0 7.57226
68.412 0 39.286
35.3423 0 9.54524
-2.5465 0 3.32566
-3.97427 0 -0.444834
-2.01557 0 1.61106
0.322555 0 0.349482
89.4223 0 30.9508
0.328368 0 2.88121
0.957393 0 0.371038
0.225 0 -0.075
0.225 0 -0.05
0.225 0 -0.025
0.225 0 0
48.241 0 -12.9665
0.100678 0 0.0209889
20.3513 0 25.108
28.5411 0 13.7669
44.7781 0 39.7323
-1.3978 0 -1.09594
-21.6174 0 -24.9099
1.30023 0 0.351673
-711.732 0 215.875
4.963 0 -24.8644
0.155061 0 0.182599
87.7388 0 111.727
11.6246 0 10.0805
2.5431 0 2.49785
18.9438 0 38.9399
0.428502 0 5.08155
14.2299 0 -1.44147
-52.3983 0 84.1887
-0.648963 0 1.23099
-2.20985 0 5.14776
0.25 0 -0.075
0.25 0 -0.05
0.25 0 -0.025
0.25 0 0
6.68535 0 10.3589
-3.75301 0 14.0314
-0.434938 0 0.685604
0.110642 0 1.02702
-65.0476 0 -18.2889
0.30778 0 0.0137619
-0.597487 0 -0.706062
37.9141 0 26.6225
0.647293 0 1.98902
-6.99393 0 5.59701
1.06592 0 -0.827488
0.377317 0 0.274577
-7.78544 0 11.9896
0.914037 0 7.75115
-0.456738 0 0.975248
0.109856 0 0.637042
0.823178 0 0.0739907
29.0129 0 -33.6327
-5.56962 0 -16.1909
-29.7002 0 33.594
0.275 0 -0.075
0.275 0 -0.05
0.275 0 -0.025
0.275 0 0
0.3 0 -0.075
0.3 0 -0.05
0.3 0 -0.025
0.3 0 0
0.325 0 -0.075
0.325 0 -0.05
0.325 0 -0.025
0.325 0 0
0.35 0 -0.075
0.35 0 -0.05
0.35 0 -0.025
0.35 0 0
0.375 0 -0.075
0.375 0 -0.05
0.375 0 -0.025
0.375 0 0
0.4 0 -0.075
0.4 0 -0.05
0.4 0 -0.025
0.4 0 0
0.425 0 -0.075
0.425 0 -0.05
0.425 0 -0.025
0.425 0 0
0.45 0 -0.075
0.45 0 -0.05
0.45 0 -0.025
0.45 0 0
0.475 0 -0.075
0.475 0 -0.05
0.475 0 -0.025
0.475 0 0
0.5 0 -0.075
0.5 0 -0.05
0.5 0 -0.025
0.5 0 0
0.525 0 -0.075
0.525 0 -0.05
0.525 0 -0.025
0.525 0 0
0.55 0 -0.075
0.55 0 -0.05
0.55 0 -0.025
0.55 0 0
0.575 0 -0.075
0.575 0 -0.05
0.575 0 -0.025
0.575 0 0
0.6 0 -0.075
0.6 0 -0.05
0.6 0 -0.025
0.6 0 0
0.625 0 -0.075
0.625 0 -0.05
0.625 0 -0.025
0.625 0 0
0.65 0 -0.075
0.65 0 -0.05
0.65 0 -0.025
0.65 0 0
0.675 0 -0.075
0.675 0 -0.05
0.675 0 -0.025
0.675 0 0
0.7 0 -0.075
0.7 0 -0.05
0.7 0 -0.025
0.7 0 0
0.725 0 -0.075
0.725 0 -0.05
0.725 0 -0.025
0.725 0 0
0.75 0 -0.075
0.75 0 -0.05
0.75 0 -0.025
0.75 0 0
0.775 0 -0.075
0.775 0 -0.05
0.775 0 -0.025
0.775 0 0
0.8 0 -0.075
0.8 0 -0.05
0.8 0 -0.025
0.8 0 0
0.825 0 -0.075
0.825 0 -0.05
0.825 0 -0.025
0.825 0 0
0.85 0 -0.075
0.85 0 -0.05
0.85 0 -0.025
0.85 0 0
0.875 0 -0.075
0.875 0 -0.05
0.875 0 -0.025
0.875 0 0
0.9 0 -0.075
0.9 0 -0.05
0.9 0 -0.025
0.9 0 0
0.925 0 -0.075
0.925 0 -0.05
0.925 0 -0.025
0.925 0 0
0.95 0 -0.075
0.95 0 -0.05
0.95 0 -0.025
0.95 0 0
0.975 0 -0.075
0.975 0 -0.05
0.975 0 -0.025
0.975 0 0
1 0 -0.075
1 0 -0.05
1 0 -0.025
1 0 0
1.025 0 -0.075
1.025 0 -0.05
1.025 0 -0.025
1.025 0 0
1.025 0 0.025
1.025 0 0.05
1.025 0 0.075
1.025 0 0.1
1.025 0 0.125
1.025 0 0.15
1.025 0 0.175
1.025 0 0.2
1.025 0 0.225
1.025 0 0.25
1.025 0 0.275
1.025 0 0.3
1.025 0 0.325
1.025 0 0.35
1.025 0 0.375
1.025 0 0.4
1.025 0 0.425
1.025 0 0.45
1.025 0 0.475
1.025 0 0.5
1.025 0 0.525
1.025 0 0.55
1.025 0 0.575
1.025 0 0.6
1.05 0 -0.075
1.05 0 -0.05
1.05 0 -0.025
1.05 0 0
1.05 0 0.025
1.05 0 0.05
1.05 0 0.075
1.05 0 0.1
1.05 0 0.125
1.05 0 0.15
1.05 0 0.175
1.05 0 0.2
1.05 0 0.225
1.05 0 0.25
1.05 0 0.275
1.05 0 0.3
1.05 0 0.325
1.05 0 0.35
1.05 0 0.375
1.05 0 0.4
1.05 0 0.425
1.05 0 0.45
1.05 0 0.475
1.05 0 0.5
1.05 0 0.525
1.05 0 0.55
1.05 0 0.575
1.05 0 0.6
1.075 0 -0.075
1.075 0 -0.05
1.075 0 -0.025
1.075 0 0
1.075 0 0.025
1.075 0 0.05
1.075 0 0.075
1.075 0 0.1
1.075 0 0.125
1.075 0 0.15
1.075 0 0.175
1.075 0 0.2
1.075 0 0.225
1.075 0 0.25
1.075 0 0.275
1.075 0 0.3
1.075 0 0.325
1.075 0 0.35
1.075 0 0.375
1.075 0 0.4
1.075 0 0.425
1.075 0 0.45
1.075 0 0.475
1.075 0 0.5
1.075 0 0.525
1.075 0 0.55
1.075 0 0.575
1.075 0 0.6
1.1 0 -0.075
1.1 0 -0.05
1.1 0 -0.025
1.1 0 0
1.1 0 0.025
1.1 0 0.05
1.1 0 0.075
1.1 0 0.1
1.1 0 0.125
1.1 0 0.15
1.1 0 0.175
1.1 0 0.2
1.1 0 0.225
1.1 0 0.25
1.1 0 0.275
1.1 0 0.3
1.1 0 0.325
1.1 0 0.35
1.1 0 0.375
1.1 0 0.4
1.1 0 0.425
1.1 0 0.45
1.1 0 0.475
1.1 0 0.5
1.1 0 0.525
1.1 0 0.55
1.1 0 0.575
1.1 0 0.6
</DataArray>
</Points>
<PointData>
<DataArray NumberOfComponents='1' type='Int32' Name='ParticleType' format='ascii'>
2
2
2
2
2
2
2
2
2
2
2
2
2
2
2
2
2
2
2
2
2
2
2
2
2
2
1
1
2
2
2
2
2
2
2
2
2
2
2
2
2
2
2
2
2
2
2
2
2
2
2
2
2
2
1
1
2
2
1
1
1
1
1
1
1
1
1
1
1
1
1
1
1
1
1
1
1
1
1
1
1
1
1
1
2
2
1
1
1
1
1
1
1
1
1
1
1
1
1
1
1
1
1
1
1
1
1
1
1
1
1
1
2
2
1
1
0
0
0
0
0
0
0
0
0
0
0
0
0
0
0
0
0
0
0
0
2
2
1
1
0
0
0
0
0
0
0
0
0
0
0
0
0
0
0
0
0
0
0
0
2
2
1
1
0
0
0
0
0
0
0
0
0
0
0
0
0
0
0
0
0
0
0
0
2
2
1
1
0
0
0
0
0
0
0
0
0
0
0
0
0
0
0
0
0
0
0
0
2
2
1
1
0
0
0
0
0
0
0
0
0
0
0
0
0
0
0
0
0
0
0
0
2
2
1
1
0
0
0
0
0
0
0
0
0
0
0
0
0
0
0
0
0
0
0
0
2
2
1
1
0
0
0
0
0
0
0
0
0
0
0
0
0
0
0
0
0
0
0
0
2
2
1
1
0
0
0
0
0
0
0
0
0
0
0
0
0
0
0
0
0
0
0
0
2
2
1
1
0
0
0
0
0
0
0
0
0
0
0
0
0
0
0
0
0
0
0
0
2
2
1
1
0
0
0
0
0
0
0
0
0
0
0
0
0
0
0
0
0
0
0
0
2
2
1
1
2
2
1
1
2
2
1
1
2
2
1
1
2
2
1
1
2
2
1
1
2
2
1
1
2
2
1
1
2
2
1
1
2
2
1
1
2
2
1
1
2
2
1
1
2
2
1
1
2
2
1
1
2
2
1
1
2
2
1
1
2
2
1
1
2
2
1
1
2
2
1
1
2
2
1
1
2
2
1
1
2
2
1
1
2
2
1
1
2
2
1
1
2
2
1
1
2
2
1
1
2
2
1
1
2
2
1
1
2
2
1
1
2
2
1
1
2
2
1
1
1
1
1
1
1
1
1
1
1
1
1
1
1
1
1
1
1
1
1
1
1
1
1
1
2
2
1
1
1
1
1
1
1
1
1
1
1
1
1
1
1
1
1
1
1
1
1
1
1
1
1
1
2
2
2
2
2
2
2
2
2
2
2
2
2
2
2
2
2
2
2
2
2
2
2
2
2
2
1
1
2
2
2
2
2
2
2
2
2
2
2
2
2
2
2
2
2
2
2
2
2
2
2
2
2
2
1
1
</DataArray>
<DataArray NumberOfComponents='1' type='Float32' Name='Velocity' format='ascii'>
0
0
0
0
0
0
0
0
0
0
0
0
0
0
0
0
0
0
0
0
0
0
0
0
0
0
0
0
0
0
0
0
0
0
0
0
0
0
0
0
0
0
0
0
0
0
0
0
0
0
0
0
0
0
0
0
0
0
0
0
0
0
0
0
0
0
0
0
0
0
0
0
0
0
0
0
0
0
0
0
0
0
0
0
0
0
0
0
0
0
0
0
0
0
0
0
0
0
0
0
0
0
0
0
0
0
0
0
0
0
0
0
0
0
0
0
3.91024
1.48426
34.32
1.38954
13.0106
0.476361
2.45668
7977.24
278.029
1.18309
0.842585
3.80464
1.04163
4286.7
1.23838
101.329
1.84029
2.09595
2.93982
0.440941
0
0
0
0
0.985006
9.63725
99.8242
123.466
3.23924
15.6919
2.17718
3029.25
0.952268
4.21828
7967.25
0.390479
0.775516
444.741
1.11709
1.58533
32.1079
2.23972
0.109227
0.594728
0
0
0
0
78.3233
5.67966
1487.07
37.9372
191.384
79.5847
0.600541
108.742
1.63281
2.40558
0.519311
23.0148
8.72699
54.2952
6.86847
1.14251
4.39848
0.687594
72.4214
1321.02
0
0
0
0
66.1829
23.4778
12.8703
2.95174
380.4
259.049
249.865
16.6469
246.455
184.582
0.821623
3.50295e+06
2.28244
42.7797
163.683
1.36857
2988.85
2.1441
57.2872
0.979546
0
0
0
0
37.7496
0.00723407
4.75977
1.84734
74.7749
82.5581
67.335
0.410027
6.67546
45.6413
31.7518
0.0510886
2.56657
0.409148
924.084
36.3654
479.739
137.326
99.1479
7.20758
0
0
0
0
92.523
143.76
2.67988
57.9239
5.02211
148.999
78.1341
52482.4
4.02276
9.03636
57.4971
53.2452
1.33203
0.719694
3.35086
3.50294e+06
3.201
20.0158
1251.36
366.758
0
0
0
0
85.2054
71.3666
42.1662
86.6328
1479.39
5.83021
94.7206
544.667
687.185
49.5596
1.44001
0.195062
33.1312
78.117
2.40694
39.2308
47.8029
1.01197
29.8223
4280.68
0
0
0
0
350.666
1.22235
1727.79
47.801
3.62555
0.263515
442.318
2.65068
1.44311
6.21128
32.2722
188.402
84.1975
9.97301
45.5338
6.67159
0.725606
228.916
6.1064
0.395745
0
0
0
0
122.665
0.740201
114.947
75.907
96.0265
6.59564
81.546
2.58815
1779.95
61.3421
3.02322
343.337
33.9287
5.46271
102.08
10.2356
32.9537
260.72
3.20152
12.7202
0
0
0
0
30.949
48.8539
3.63558
1.46079
114.564
1.43855
6.27746
108.835
4.91029
21.0211
52.8235
2.83863
33.557
18.6344
2.94447
4.05145
1.10244
104.881
45.9912
104.82
0
0
0
0
0
0
0
0
0
0
0
0
0
0
0
0
0
0
0
0
0
0
0
0
0
0
0
0
0
0
0
0
0
0
0
0
0
0
0
0
0
0
0
0
0
0
0
0
0
0
0
0
0
0
0
0
0
0
0
0
0
0
0
0
0
0
0
0
0
0
0
0
0
0
0
0
0
0
0
0
0
0
0
0
0
0
0
0
0
0
0
0
0
0
0
0
0
0
0
0
0
0
0
0
0
0
0
0
0
0
0
0
0
0
0
0
0
0
0
0
0
0
0
0
0
0
0
0
0
0
0
0
0
0
0
0
0
0
0
0
0
0
0
0
0
0
0
0
0
0
0
0
0
0
0
0
0
0
0
0
0
0
0
0
0
0
0
0
0
0
0
0
0
0
0
0
0
0
0
0
0
0
0
0
0
0
0
0
0
0
0
0
0
0
0
0
0
0
0
0
0
0
0
0
0
0
0
0
0
0
0
0
0
0
0
0
0
0
0
0
0
0
0
0
0
0
0
0
0
0
0
0
</DataArray>
<DataArray NumberOfComponents='1' type='Float32' Name='pressure' format='ascii'>
0
0
0
0
0
0
0
0
0
0
0
0
0
0
0
0
0
0
0
0
0
0
0
0
0
0
0
0
0
0
0
0
0
0
0
0
0
0
0
0
0
0
0
0
0
0
0
0
0
0
0
0
0
0
0
0
0
0
51.9951
82.4495
5.41239
1507.07
1119.39
199.38
730.459
2351.63
5749.91
5383.22
2005.12
411.537
0
0
0
0
0
0
0
0
0
0
0
0
0
0
0
0
65.3295
0
0
0
0
0
0
0
5169.01
4611
0
0
0
0
0
0
0
0
0
0
0
0
0
0
0
0
0
0
0
0
0
0
0
0
0
0
0
0
0
0
0
0
0
0
8246.43
0
0
0
0
0
0
0
804.041
0
0
0
0
0
0
0
0
0
0
0
0
5049.92
0
0
0
0
0
0
0
0
0
0
2761.24
0
0
0
0
0
0
0
0
0
0
0
0
0
0
0
0
0
0
0
0
0
0
0
7119.74
6405.16
0
0
0
20311
0
0
0
0
0
0
0
0
0
0
0
3165.41
0
0
0
0
0
0
10797.8
11404.1
0
47383
0
0
0
0
0
0
0
0
0
45180.8
0
0
0
0
0
0
0
0
0
0
15806.8
18866.4
0
0
0
0
0
0
0
0
0
0
0
0
0
0
0
0
0
0
0
0
0
0
16100.1
19939.2
0
0
0
0
0
0
0
0
0
0
0
0
0
0
0
0
0
279.278
0
0
0
0
11380.3
9535.99
0
0
0
0
0
0
0
0
0
0
0
0
0
0
0
0
0
0
0
0
0
0
6916.98
0
0
0
0
0
0
0
0
0
0
0
0
0
0
0
0
0
0
0
0
0
0
0
5495.71
5926.64
0
0
0
0
0
0
0
0
0
0
0
0
0
0
0
0
0
0
0
0
0
0
3294.61
0
0
0
3939.33
3173.74
0
0
2515.71
0
0
0
362.452
0
0
0
0
0
0
0
0
0
0
0
0
0
0
0
0
0
0
0
0
0
0
0
0
0
0
0
0
0
0
0
0
0
0
0
0
0
0
0
0
0
0
0
0
0
0
0
560.573
0
0
0
2790.59
1949.99
0
0
2929.32
2276.6
0
0
1367.13
0
0
0
2179.87
0
0
0
5906.72
0
0
0
11955.7
8131.94
0
0
21358.8
0
0
0
39982.5
33316.5
0
0
46079.2
38133.4
0
0
47129.3
39041
0
0
42300.3
34817.8
0
0
22063.6
0
0
0
8983.79
0
0
0
2858.08
0
0
0
1249.42
0
0
0
0
0
0
0
0
0
0
0
0
0
0
0
0
0
0
0
0
0
0
0
0
0
0
0
664.581
277.119
0
0
0
0
0
0
0
0
0
0
0
0
0
0
0
0
0
0
0
0
0
0
0
0
0
0
0
0
0
0
0
0
0
0
0
0
0
0
0
0
0
0
0
0
0
0
0
0
0
0
0
0
0
0
0
0
0
0
0
0
0
0
0
0
0
0
0
0
0
0
0
0
0
0
0
0
0
0
0
0
</DataArray>
</PointData>
<Cells>
<DataArray type='Int32' Name='connectivity' format='ascii'>
0
1
2
3
4
5
6
7
8
9
10
11
12
13
14
15
16
17
18
19
20
21
22
23
24
25
26
27
28
29
30
31
32
33
34
35
36
37
38
39
40
41
42
43
44
45
46
47
48
49
50
51
52
53
54
55
56
57
58
59
60
61
62
63
64
65
66
67
68
69
70
71
72
73
74
75
76
77
78
79
80
81
82
83
84
85
86
87
88
89
90
91
92
93
94
95
96
97
98
99
100
101
102
103
104
105
106
107
108
109
110
111
112
113
114
115
116
117
118
119
120
121
122
123
124
125
126
127
128
129
130
131
132
133
134
135
136
137
138
139
140
141
142
143
144
145
146
147
148
149
150
151
152
153
154
155
156
157
158
159
160
161
162
163
164
165
166
167
168
169
170
171
172
173
174
175
176
177
178
179
180
181
182
183
184
185
186
187
188
189
190
191
192
193
194
195
196
197
198
199
200
201
202
203
204
205
206
207
208
209
210
211
212
213
214
215
216
217
218
219
220
221
222
223
224
225
226
227
228
229
230
231
232
233
234
235
236
237
238
239
240
241
242
243
244
245
246
247
248
249
250
251
252
253
254
255
256
257
258
259
260
261
262
263
264
265
266
267
268
269
270
271
272
273
274
275
276
277
278
279
280
281
282
283
284
285
286
287
288
289
290
291
292
293
294
295
296
297
298
299
300
301
302
303
304
305
306
307
308
309
310
311
312
313
314
315
316
317
318
319
320
321
322
323
324
325
326
327
328
329
330
331
332
333
334
335
336
337
338
339
340
341
342
343
344
345
346
347
348
349
350
351
352
353
354
355
356
357
358
359
360
361
362
363
364
365
366
367
368
369
370
371
372
373
374
375
376
377
378
379
380
381
382
383
384
385
386
387
388
389
390
391
392
393
394
395
396
397
398
399
400
401
402
403
404
405
406
407
408
409
410
411
412
413
414
415
416
417
418
419
420
421
422
423
424
425
426
427
428
429
430
431
432
433
434
435
436
437
438
439
440
441
442
443
444
445
446
447
448
449
450
451
452
453
454
455
456
457
458
459
460
461
462
463
464
465
466
467
468
469
470
471
472
473
474
475
476
477
478
479
480
481
482
483
484
485
486
487
488
489
490
491
492
493
494
495
496
497
498
499
500
501
502
503
504
505
506
507
508
509
510
511
512
513
514
515
516
517
518
519
520
521
522
523
524
525
526
527
528
529
530
531
532
533
534
535
536
537
538
539
540
541
542
543
544
545
546
547
548
549
550
551
552
553
554
555
556
557
558
559
560
561
562
563
564
565
566
567
568
569
570
571
572
573
574
575
576
577
578
579
580
581
582
583
</DataArray>
<DataArray type='Int32' Name='offsets' format='ascii'>
1
2
3
4
5
6
7
8
9
10
11
12
13
14
15
16
17
18
19
20
21
22
23
24
25
26
27
28
29
30
31
32
33
34
35
36
37
38
39
40
41
42
43
44
45
46
47
48
49
50
51
52
53
54
55
56
57
58
59
60
61
62
63
64
65
66
67
68
69
70
71
72
73
74
75
76
77
78
79
80
81
82
83
84
85
86
87
88
89
90
91
92
93
94
95
96
97
98
99
100
101
102
103
104
105
106
107
108
109
110
111
112
113
114
115
116
117
118
119
120
121
122
123
124
125
126
127
128
129
130
131
132
133
134
135
136
137
138
139
140
141
142
143
144
145
146
147
148
149
150
151
152
153
154
155
156
157
158
159
160
161
162
163
164
165
166
167
168
169
170
171
172
173
174
175
176
177
178
179
180
181
182
183
184
185
186
187
188
189
190
191
192
193
194
195
196
197
198
199
200
201
202
203
204
205
206
207
208
209
210
211
212
213
214
215
216
217
218
219
220
221
222
223
224
225
226
227
228
229
230
231
232
233
234
235
236
237
238
239
240
241
242
243
244
245
246
247
248
249
250
251
252
253
254
255
256
257
258
259
260
261
262
263
264
265
266
267
268
269
270
271
272
273
274
275
276
277
278
279
280
281
282
283
284
285
286
287
288
289
290
291
292
293
294
295
296
297
298
299
300
301
302
303
304
305
306
307
308
309
310
311
312
313
314
315
316
317
318
319
320
321
322
323
324
325
326
327
328
329
330
331
332
333
334
335
336
337
338
339
340
341
342
343
344
345
346
347
348
349
350
351
352
353
354
355
356
357
358
359
360
361
362
363
364
365
366
367
368
369
370
371
372
373
374
375
376
377
378
379
380
381
382
383
384
385
386
387
388
389
390
391
392
393
394
395
396
397
398
399
400
401
402
403
404
405
406
407
408
409
410
411
412
413
414
415
416
417
418
419
420
421
422
423
424
425
426
427
428
429
430
431
432
433
434
435
436
437
438
439
440
441
442
443
444
445
446
447
448
449
450
451
452
453
454
455
456
457
458
459
460
461
462
463
464
465
466
467
468
469
470
471
472
473
474
475
476
477
478
479
480
481
482
483
484
485
486
487
488
489
490
491
492
493
494
495
496
497
498
499
500
501
502
503
504
505
506
507
508
509
510
511
512
513
514
515
516
517
518
519
520
521
522
523
524
525
526
527
528
529
530
531
532
533
534
535
536
537
538
539
540
541
542
543
544
545
546
547
548
549
550
551
552
553
554
555
556
557
558
559
560
561
562
563
564
565
566
567
568
569
570
571
572
573
574
575
576
577
578
579
580
581
582
583
584
</DataArray>
<DataArray type='UInt8' Name='types' format='ascii'>
1
1
1
1
1
1
1
1
1
1
1
1
1
1
1
1
1
1
1
1
1
1
1
1
1
1
1
1
1
1
1
1
1
1
1
1
1
1
1
1
1
1
1
1
1
1
1
1
1
1
1
1
1
1
1
1
1
1
1
1
1
1
1
1
1
1
1
1
1
1
1
1
1
1
1
1
1
1
1
1
1
1
1
1
1
1
1
1
1
1
1
1
1
1
1
1
1
1
1
1
1
1
1
1
1
1
1
1
1
1
1
1
1
1
1
1
1
1
1
1
1
1
1
1
1
1
1
1
1
1
1
1
1
1
1
1
1
1
1
1
1
1
1
1
1
1
1
1
1
1
1
1
1
1
1
1
1
1
1
1
1
1
1
1
1
1
1
1
1
1
1
1
1
1
1
1
1
1
1
1
1
1
1
1
1
1
1
1
1
1
1
1
1
1
1
1
1
1
1
1
1
1
1
1
1
1
1
1
1
1
1
1
1
1
1
1
1
1
1
1
1
1
1
1
1
1
1
1
1
1
1
1
1
1
1
1
1
1
1
1
1
1
1
1
1
1
1
1
1
1
1
1
1
1
1
1
1
1
1
1
1
1
1
1
1
1
1
1
1
1
1
1
1
1
1
1
1
1
1
1
1
1
1
1
1
1
1
1
1
1
1
1
1
1
1
1
1
1
1
1
1
1
1
1
1
1
1
1
1
1
1
1
1
1
1
1
1
1
1
1
1
1
1
1
1
1
1
1
1
1
1
1
1
1
1
1
1
1
1
1
1
1
1
1
1
1
1
1
1
1
1
1
1
1
1
1
1
1
1
1
1
1
1
1
1
1
1
1
1
1
1
1
1
1
1
1
1
1
1
1
1
1
1
1
1
1
1
1
1
1
1
1
1
1
1
1
1
1
1
1
1
1
1
1
1
1
1
1
1
1
1
1
1
1
1
1
1
1
1
1
1
1
1
1
1
1
1
1
1
1
1
1
1
1
1
1
1
1
1
1
1
1
1
1
1
1
1
1
1
1
1
1
1
1
1
1
1
1
1
1
1
1
1
1
1
1
1
1
1
1
1
1
1
1
1
1
1
1
1
1
1
1
1
1
1
1
1
1
1
1
1
1
1
1
1
1
1
1
1
1
1
1
1
1
1
1
1
1
1
1
1
1
1
1
1
1
1
1
1
1
1
1
1
1
1
1
1
1
1
1
1
1
1
1
1
1
1
1
1
1
1
1
1
1
1
1
1
1
1
1
1
1
1
1
1
1
1
1
1
1
1
1
1
1
1
1
1
1
1
1
1
1
1
1
1
1
1
1
1
1
1
1
1
1
</DataArray>
</Cells>
</Piece>
</UnstructuredGrid>
</VTKFile>
