<?xml version='1.0' encoding='UTF-8'?>
<VTKFile xmlns='VTK' byte_order='LittleEndian' version='0.1' type='UnstructuredGrid'>
<UnstructuredGrid>
<Piece NumberOfCells='584' NumberOfPoints='584'>
<Points>
<DataArray NumberOfComponents='3' type='Float32' Name='Position' format='ascii'>
-0.075 -0.075 0
-0.075 -0.05 0
-0.075 -0.025 0
-0.075 0 0
-0.075 0.025 0
-0.075 0.05 0
-0.075 0.075 0
-0.075 0.1 0
-0.075 0.125 0
-0.075 0.15 0
-0.075 0.175 0
-0.075 0.2 0
-0.075 0.225 0
-0.075 0.25 0
-0.075 0.275 0
-0.075 0.3 0
-0.075 0.325 0
-0.075 0.35 0
-0.075 0.375 0
-0.075 0.4 0
-0.075 0.425 0
-0.075 0.45 0
-0.075 0.475 0
-0.075 0.5 0
-0.075 0.525 0
-0.075 0.55 0
-0.075 0.575 0
-0.075 0.6 0
-0.05 -0.075 0
-0.05 -0.05 0
-0.05 -0.025 0
-0.05 0 0
-0.05 0.025 0
-0.05 0.05 0
-0.05 0.075 0
-0.05 0.1 0
-0.05 0.125 0
-0.05 0.15 0
-0.05 0.175 0
-0.05 0.2 0
-0.05 0.225 0
-0.05 0.25 0
-0.05 0.275 0
-0.05 0.3 0
-0.05 0.325 0
-0.05 0.35 0
-0.05 0.375 0
-0.05 0.4 0
-0.05 0.425 0
-0.05 0.45 0
-0.05 0.475 0
-0.05 0.5 0
-0.05 0.525 0
-0.05 0.55 0
-0.05 0.575 0
-0.05 0.6 0
-0.025 -0.075 0
-0.025 -0.05 0
-0.025 -0.025 0
-0.025 0 0
-0.025 0.025 0
-0.025 0.05 0
-0.025 0.075 0
-0.025 0.1 0
-0.025 0.125 0
-0.025 0.15 0
-0.025 0.175 0
-0.025 0.2 0
-0.025 0.225 0
-0.025 0.25 0
-0.025 0.275 0
-0.025 0.3 0
-0.025 0.325 0
-0.025 0.35 0
-0.025 0.375 0
-0.025 0.4 0
-0.025 0.425 0
-0.025 0.45 0
-0.025 0.475 0
-0.025 0.5 0
-0.025 0.525 0
-0.025 0.55 0
-0.025 0.575 0
-0.025 0.6 0
0 -0.075 0
0 -0.05 0
0 -0.025 0
0 0 0
0 0.025 0
0 0.05 0
0 0.075 0
0 0.1 0
0 0.125 0
0 0.15 0
0 0.175 0
0 0.2 0
0 0.225 0
0 0.25 0
0 0.275 0
0 0.3 0
0 0.325 0
0 0.35 0
0 0.375 0
0 0.4 0
0 0.425 0
0 0.45 0
0 0.475 0
0 0.5 0
0 0.525 0
0 0.55 0
0 0.575 0
0 0.6 0
0.025 -0.075 0
0.025 -0.05 0
0.025 -0.025 0
0.025 0 0
0.195754 0.239182 0
1.10065 10.4401 0
0.853177 2.01725 0
-132.346 -1750.35 0
0.948825 0.0196734 0
4.18879 2.28571 0
7.45068 6.84219 0
2.36842 0.947123 0
0.13397 0.120288 0
-6.12145 7.51467 0
0.650377 -11.5748 0
18.4184 27.6366 0
-0.418696 5.41983 0
157.071 140.508 0
2.61146 3.05119 0
-121.854 -39.4497 0
13.7533 8.14696 0
0.09989 0.0925336 0
276.654 411.234 0
-7.04128 1.35422 0
0.05 -0.075 0
0.05 -0.05 0
0.05 -0.025 0
0.05 0 0
-56.9571 10.3043 0
-279.866 -409.777 0
0.599289 0.0229424 0
-115.035 -148.872 0
12.9737 15.742 0
0.670773 0.0246529 0
107.692 -347.328 0
-1.7576 -16.6463 0
-54.4197 -27.676 0
0.315503 0.0188602 0
15.1151 48.7372 0
180.139 -126.413 0
1.23234 -29.8364 0
7.44915 -24.2135 0
-19.0199 -5.33925 0
1.2509 0.655914 0
-321.218 -210.457 0
0.0252084 0.0165098 0
3.78266 18.4237 0
8.14383 31.3056 0
0.075 -0.075 0
0.075 -0.05 0
0.075 -0.025 0
0.075 0 0
11.2117 -65.3964 0
-1.72426 35.2831 0
-7.93765 11.2018 0
4.43136 16.5857 0
0.615097 0.0457555 0
177.729 5.94355 0
0.653076 0.112104 0
-2.52144 3.74606 0
-366.279 378.104 0
328.039 211.356 0
17.1722 -17.7942 0
-1513.59 -1212.52 0
0.643846 1.10168 0
0.796414 0.243227 0
58.8931 -61.9924 0
-1.99301 21.1669 0
-38.2525 -45.6335 0
2.04765 0.27087 0
-0.912559 -1.29477 0
-66.2387 59.3634 0
0.1 -0.075 0
0.1 -0.05 0
0.1 -0.025 0
0.1 0 0
0.766741 -10.7596 0
-8.89679 -46.7541 0
-7.43204 8.67953 0
0.39635 0.0241785 0
0.20505 0.0699945 0
-23.0051 -29.0118 0
-0.686501 5.78441 0
-85.8721 13.5506 0
1.34597 10.5826 0
1514.18 1210.96 0
-12.0052 13.5014 0
-5.48776 25.1718 0
-21.9339 9.29938 0
0.299911 0.0294004 0
-16.3256 -90.3643 0
21.2988 -9.92269 0
-158.022 -1.43874 0
64.5803 -70.2499 0
-108.579 37.1421 0
1.10839 6.92711 0
0.125 -0.075 0
0.125 -0.05 0
0.125 -0.025 0
0.125 0 0
7.32243 -6.81032 0
8.561 -1.10525 0
0.898954 0.282051 0
0.286007 0.0363417 0
-20.0232 -37.5598 0
31.3842 40.8913 0
862.203 8730.57 0
82.2635 -61.7919 0
2.75519 2.68725 0
-516.875 -78.6338 0
-2.27716 -14.4847 0
6.95315 -22.402 0
69.2511 41.4401 0
21.6004 24.2101 0
407.194 831.592 0
5.72623 -16.3227 0
0.333893 0.138211 0
0.787525 0.0184599 0
-863.793 -8722.76 0
-28.1962 -36.4456 0
0.15 -0.075 0
0.15 -0.05 0
0.15 -0.025 0
0.15 0 0
1.01367 0.0659032 0
0.407168 0.265012 0
78.1724 -200.223 0
-2.86944 14.2157 0
21.6213 20.6374 0
415.066 718.613 0
1.12938 5.53486 0
-0.551561 -16.3373 0
0.221562 0.0349655 0
0.544562 1.40379 0
-10889.6 26223.1 0
-14.9664 -19.2446 0
-48.7571 -48.8708 0
-1607.73 1426.86 0
0.106023 0.0437265 0
0.887554 0.0225265 0
-2.60624 1.27711 0
73.3659 -2.46814 0
17.5142 20.7144 0
5.77567 -12.8493 0
0.175 -0.075 0
0.175 -0.05 0
0.175 -0.025 0
0.175 0 0
-58.0333 0.422818 0
514.51 75.8056 0
0.937223 5.09413 0
-55.1321 22.3177 0
22.2898 -8.32179 0
-8.94781 -31.3997 0
-16.654 -1.82665 0
0.497835 0.012994 0
99.8268 16.8934 0
-45.194 55.4575 0
0.391355 0.0322546 0
1597.02 -1429.29 0
2.82104 2.82551 0
-0.0969106 2.13266 0
-87.8803 48.3689 0
-15.7991 -8.78212 0
45.017 55.0652 0
10862.3 -26229 0
-14.7997 7.62077 0
0.771039 0.117325 0
0.2 -0.075 0
0.2 -0.05 0
0.2 -0.025 0
0.2 0 0
13.844 -2.6207 0
17.5798 54.5726 0
-2.86669 10.3713 0
0.69135 0.0135958 0
9.53078 -11.3594 0
-1.05351 -0.325558 0
0.258048 0.0849327 0
84.0151 55.9721 0
13.9245 -78.8449 0
-2.1725 -0.826327 0
0.968174 0.0502474 0
358.817 -379.603 0
21.307 -5.44464 0
-0.992548 0.0836921 0
26.7889 20.1011 0
1.00237 0.226303 0
11.8278 14.4346 0
-11.1097 -80.0436 0
-17.6881 -25.4274 0
-107.641 205.995 0
0.225 -0.075 0
0.225 -0.05 0
0.225 -0.025 0
0.225 0 0
-8.72423 22.5717 0
0.190577 0.0248528 0
0.135506 0.0140299 0
9.78193 1.97221 0
21.1814 1.58911 0
-1.68164 -2.63648 0
0.0389508 0.0741622 0
-5.72305 6.85413 0
-21.7193 -53.7368 0
509.514 920.53 0
0.41753 0.279252 0
-0.173862 2.19236 0
0.622463 0.0253237 0
0.569509 0.137748 0
0.339773 0.174144 0
0.734851 0.0336883 0
-0.972376 0.940503 0
18.9524 -26.5108 0
0.369561 0.581608 0
95.601 -48.3132 0
0.25 -0.075 0
0.25 -0.05 0
0.25 -0.025 0
0.25 0 0
8.35065 13.5682 0
0.2817 0.0206689 0
0.31158 1.69056 0
-181.96 122.524 0
3.25222 5.43954 0
-3481.86 4883.34 0
-0.900696 -2.12129 0
4.93183 12.0631 0
0.412955 0.366031 0
2.60498 19.1143 0
-75.6753 2.70647 0
-7.09703 -18.9745 0
0.195725 0.0529537 0
-7.13915 -1.99804 0
6.35452 11.8041 0
-0.179905 0.969239 0
-5.91413 -1.5059 0
-9.93254 2.97249 0
0.9389 -15.3495 0
-22819.9 -6488.4 0
0.275 -0.075 0
0.275 -0.05 0
0.275 -0.025 0
0.275 0 0
0.3 -0.075 0
0.3 -0.05 0
0.3 -0.025 0
0.3 0 0
0.325 -0.075 0
0.325 -0.05 0
0.325 -0.025 0
0.325 0 0
0.35 -0.075 0
0.35 -0.05 0
0.35 -0.025 0
0.35 0 0
0.375 -0.075 0
0.375 -0.05 0
0.375 -0.025 0
0.375 0 0
0.4 -0.075 0
0.4 -0.05 0
0.4 -0.025 0
0.4 0 0
0.425 -0.075 0
0.425 -0.05 0
0.425 -0.025 0
0.425 0 0
0.45 -0.075 0
0.45 -0.05 0
0.45 -0.025 0
0.45 0 0
0.475 -0.075 0
0.475 -0.05 0
0.475 -0.025 0
0.475 0 0
0.5 -0.075 0
0.5 -0.05 0
0.5 -0.025 0
0.5 0 0
0.525 -0.075 0
0.525 -0.05 0
0.525 -0.025 0
0.525 0 0
0.55 -0.075 0
0.55 -0.05 0
0.55 -0.025 0
0.55 0 0
0.575 -0.075 0
0.575 -0.05 0
0.575 -0.025 0
0.575 0 0
0.6 -0.075 0
0.6 -0.05 0
0.6 -0.025 0
0.6 0 0
0.625 -0.075 0
0.625 -0.05 0
0.625 -0.025 0
0.625 0 0
0.65 -0.075 0
0.65 -0.05 0
0.65 -0.025 0
0.65 0 0
0.675 -0.075 0
0.675 -0.05 0
0.675 -0.025 0
0.675 0 0
0.7 -0.075 0
0.7 -0.05 0
0.7 -0.025 0
0.7 0 0
0.725 -0.075 0
0.725 -0.05 0
0.725 -0.025 0
0.725 0 0
0.75 -0.075 0
0.75 -0.05 0
0.75 -0.025 0
0.75 0 0
0.775 -0.075 0
0.775 -0.05 0
0.775 -0.025 0
0.775 0 0
0.8 -0.075 0
0.8 -0.05 0
0.8 -0.025 0
0.8 0 0
0.825 -0.075 0
0.825 -0.05 0
0.825 -0.025 0
0.825 0 0
0.85 -0.075 0
0.85 -0.05 0
0.85 -0.025 0
0.85 0 0
0.875 -0.075 0
0.875 -0.05 0
0.875 -0.025 0
0.875 0 0
0.9 -0.075 0
0.9 -0.05 0
0.9 -0.025 0
0.9 0 0
0.925 -0.075 0
0.925 -0.05 0
0.925 -0.025 0
0.925 0 0
0.95 -0.075 0
0.95 -0.05 0
0.95 -0.025 0
0.95 0 0
0.975 -0.075 0
0.975 -0.05 0
0.975 -0.025 0
0.975 0 0
1 -0.075 0
1 -0.05 0
1 -0.025 0
1 0 0
1.025 -0.075 0
1.025 -0.05 0
1.025 -0.025 0
1.025 0 0
1.025 0.025 0
1.025 0.05 0
1.025 0.075 0
1.025 0.1 0
1.025 0.125 0
1.025 0.15 0
1.025 0.175 0
1.025 0.2 0
1.025 0.225 0
1.025 0.25 0
1.025 0.275 0
1.025 0.3 0
1.025 0.325 0
1.025 0.35 0
1.025 0.375 0
1.025 0.4 0
1.025 0.425 0
1.025 0.45 0
1.025 0.475 0
1.025 0.5 0
1.025 0.525 0
1.025 0.55 0
1.025 0.575 0
1.025 0.6 0
1.05 -0.075 0
1.05 -0.05 0
1.05 -0.025 0
1.05 0 0
1.05 0.025 0
1.05 0.05 0
1.05 0.075 0
1.05 0.1 0
1.05 0.125 0
1.05 0.15 0
1.05 0.175 0
1.05 0.2 0
1.05 0.225 0
1.05 0.25 0
1.05 0.275 0
1.05 0.3 0
1.05 0.325 0
1.05 0.35 0
1.05 0.375 0
1.05 0.4 0
1.05 0.425 0
1.05 0.45 0
1.05 0.475 0
1.05 0.5 0
1.05 0.525 0
1.05 0.55 0
1.05 0.575 0
1.05 0.6 0
1.075 -0.075 0
1.075 -0.05 0
1.075 -0.025 0
1.075 0 0
1.075 0.025 0
1.075 0.05 0
1.075 0.075 0
1.075 0.1 0
1.075 0.125 0
1.075 0.15 0
1.075 0.175 0
1.075 0.2 0
1.075 0.225 0
1.075 0.25 0
1.075 0.275 0
1.075 0.3 0
1.075 0.325 0
1.075 0.35 0
1.075 0.375 0
1.075 0.4 0
1.075 0.425 0
1.075 0.45 0
1.075 0.475 0
1.075 0.5 0
1.075 0.525 0
1.075 0.55 0
1.075 0.575 0
1.075 0.6 0
1.1 -0.075 0
1.1 -0.05 0
1.1 -0.025 0
1.1 0 0
1.1 0.025 0
1.1 0.05 0
1.1 0.075 0
1.1 0.1 0
1.1 0.125 0
1.1 0.15 0
1.1 0.175 0
1.1 0.2 0
1.1 0.225 0
1.1 0.25 0
1.1 0.275 0
1.1 0.3 0
1.1 0.325 0
1.1 0.35 0
1.1 0.375 0
1.1 0.4 0
1.1 0.425 0
1.1 0.45 0
1.1 0.475 0
1.1 0.5 0
1.1 0.525 0
1.1 0.55 0
1.1 0.575 0
1.1 0.6 0
</DataArray>
</Points>
<PointData>
<DataArray NumberOfComponents='1' type='Int32' Name='ParticleType' format='ascii'>
2
2
2
2
2
2
2
2
2
2
2
2
2
2
2
2
2
2
2
2
2
2
2
2
2
2
1
1
2
2
2
2
2
2
2
2
2
2
2
2
2
2
2
2
2
2
2
2
2
2
2
2
2
2
1
1
2
2
1
1
1
1
1
1
1
1
1
1
1
1
1
1
1
1
1
1
1
1
1
1
1
1
1
1
2
2
1
1
1
1
1
1
1
1
1
1
1
1
1
1
1
1
1
1
1
1
1
1
1
1
1
1
2
2
1
1
0
0
0
0
0
0
0
0
0
0
0
0
0
0
0
0
0
0
0
0
2
2
1
1
0
0
0
0
0
0
0
0
0
0
0
0
0
0
0
0
0
0
0
0
2
2
1
1
0
0
0
0
0
0
0
0
0
0
0
0
0
0
0
0
0
0
0
0
2
2
1
1
0
0
0
0
0
0
0
0
0
0
0
0
0
0
0
0
0
0
0
0
2
2
1
1
0
0
0
0
0
0
0
0
0
0
0
0
0
0
0
0
0
0
0
0
2
2
1
1
0
0
0
0
0
0
0
0
0
0
0
0
0
0
0
0
0
0
0
0
2
2
1
1
0
0
0
0
0
0
0
0
0
0
0
0
0
0
0
0
0
0
0
0
2
2
1
1
0
0
0
0
0
0
0
0
0
0
0
0
0
0
0
0
0
0
0
0
2
2
1
1
0
0
0
0
0
0
0
0
0
0
0
0
0
0
0
0
0
0
0
0
2
2
1
1
0
0
0
0
0
0
0
0
0
0
0
0
0
0
0
0
0
0
0
0
2
2
1
1
2
2
1
1
2
2
1
1
2
2
1
1
2
2
1
1
2
2
1
1
2
2
1
1
2
2
1
1
2
2
1
1
2
2
1
1
2
2
1
1
2
2
1
1
2
2
1
1
2
2
1
1
2
2
1
1
2
2
1
1
2
2
1
1
2
2
1
1
2
2
1
1
2
2
1
1
2
2
1
1
2
2
1
1
2
2
1
1
2
2
1
1
2
2
1
1
2
2
1
1
2
2
1
1
2
2
1
1
2
2
1
1
2
2
1
1
2
2
1
1
1
1
1
1
1
1
1
1
1
1
1
1
1
1
1
1
1
1
1
1
1
1
1
1
2
2
1
1
1
1
1
1
1
1
1
1
1
1
1
1
1
1
1
1
1
1
1
1
1
1
1
1
2
2
2
2
2
2
2
2
2
2
2
2
2
2
2
2
2
2
2
2
2
2
2
2
2
2
1
1
2
2
2
2
2
2
2
2
2
2
2
2
2
2
2
2
2
2
2
2
2
2
2
2
2
2
1
1
</DataArray>
<DataArray NumberOfComponents='1' type='Float32' Name='Velocity' format='ascii'>
0
0
0
0
0
0
0
0
0
0
0
0
0
0
0
0
0
0
0
0
0
0
0
0
0
0
0
0
0
0
0
0
0
0
0
0
0
0
0
0
0
0
0
0
0
0
0
0
0
0
0
0
0
0
0
0
0
0
0
0
0
0
0
0
0
0
0
0
0
0
0
0
0
0
0
0
0
0
0
0
0
0
0
0
0
0
0
0
0
0
0
0
0
0
0
0
0
0
0
0
0
0
0
0
0
0
0
0
0
0
0
0
0
0
0
0
0.387677
17.5494
1.34222
3154.15
0.786025
7.68164
15.8122
3.6321
0.822917
96.053
27.9002
65.2367
4.87717
304.198
5.15139
1472.54
34.3712
1.23049
895.424
56.9733
0
0
0
0
89.1132
901.417
0.628141
276.854
33.217
1.30751
669.457
62.3408
86.3611
0.506079
106.512
338.812
47.0681
42.2663
29.1126
3.04439
576.325
0.177145
66.3621
75.5097
0
0
0
0
83.5601
85.3919
87.3037
23.4268
0.549499
240.766
0.113896
4.78148
646.537
581.051
33.3129
2400.34
1.78284
0.753418
136.924
27.7129
86.2341
4.70891
6.78406
138.499
0
0
0
0
17.9783
105.039
10.8671
0.897314
1.89399
77.1254
6.45747
104.032
47.9133
2393.51
27.5495
32.7327
30.5283
2.11441
144.449
37.2079
215.514
111.853
148.175
10.7756
0
0
0
0
98.6255
57.9346
0.162804
0.594139
61.5095
68.2448
11600.6
143.246
4.45808
690.497
27.5869
36.3969
117.784
56.8155
1388.55
28.8705
1.01406
1.36093
11598.4
83.5393
0
0
0
0
0.0472604
1.46744
337.298
20.1406
38.2579
1239.07
5.2012
78.4423
1.34647
0.686592
35400.7
76.33
144.492
2793.2
0.762209
0.142136
5.31397
88.9332
77.968
32.9706
0
0
0
0
71.9869
683.558
3.43051
76.3497
29.094
81.4518
27.5405
0.277577
153.352
79.3466
3.23954
2789.14
3.16872
1.73003
137.249
67.6807
142.534
35401.6
18.5949
1.62876
0
0
0
0
23.9792
82.1147
11.595
1.95611
89.8769
5.49019
1.23367
127.13
154.429
6.73917
0.550756
646.695
28.9951
4.89304
42.0983
2.10716
23.2272
154.997
46.8439
358.64
0
0
0
0
25.489
0.323932
0.598292
31.1566
87.1261
8.50628
1.3936
13.9333
89.9493
1803.71
1.95222
1.60434
1.23124
3.22235
1.41112
0.863614
4.10088
221.944
5.22744
139.857
0
0
0
0
19.5977
1.50317
11.0738
334.228
4.06735
9340.24
8.19306
13.2956
1.03907
28.5953
116.404
38.2235
0.907821
12.5152
22.9657
1.88765
11.5153
15.3684
32.5305
36670.9
0
0
0
0
0
0
0
0
0
0
0
0
0
0
0
0
0
0
0
0
0
0
0
0
0
0
0
0
0
0
0
0
0
0
0
0
0
0
0
0
0
0
0
0
0
0
0
0
0
0
0
0
0
0
0
0
0
0
0
0
0
0
0
0
0
0
0
0
0
0
0
0
0
0
0
0
0
0
0
0
0
0
0
0
0
0
0
0
0
0
0
0
0
0
0
0
0
0
0
0
0
0
0
0
0
0
0
0
0
0
0
0
0
0
0
0
0
0
0
0
0
0
0
0
0
0
0
0
0
0
0
0
0
0
0
0
0
0
0
0
0
0
0
0
0
0
0
0
0
0
0
0
0
0
0
0
0
0
0
0
0
0
0
0
0
0
0
0
0
0
0
0
0
0
0
0
0
0
0
0
0
0
0
0
0
0
0
0
0
0
0
0
0
0
0
0
0
0
0
0
0
0
0
0
0
0
0
0
0
0
0
0
0
0
0
0
0
0
0
0
0
0
0
0
0
0
0
0
0
0
0
0
</DataArray>
<DataArray NumberOfComponents='1' type='Float32' Name='pressure' format='ascii'>
0
0
0
0
0
0
0
0
0
0
0
0
0
0
0
0
0
0
0
0
0
0
0
0
0
0
0
0
0
0
0
0
0
0
0
0
0
0
0
0
0
0
0
0
0
0
0
0
0
0
0
0
0
0
0
0
0
0
2247.67
1738.44
806.6
0
0
0
0
0
0
0
0
0
0
0
0
0
0
0
0
0
0
0
0
0
0
0
0
0
2840.99
2937.1
0
0
0
0
0
0
0
0
0
0
0
0
0
0
0
0
0
0
0
0
0
0
0
0
0
0
3312.45
3812.8
0
0
0
0
0
0
0
0
0
0
0
0
0
0
0
0
0
0
0
0
0
0
1614.6
0
0
0
0
0
0
0
0
0
0
5753.66
0
0
0
0
0
0
0
0
0
0
0
0
470.871
0
0
0
0
0
0
0
0
0
0
0
0
0
0
0
0
0
0
0
0
0
0
0
375.396
0
0
0
0
1329.42
0
0
0
0
0
0
0
0
0
9385.28
0
0
0
0
0
0
0
0
2158.81
389.478
0
0
0
0
0
0
0
0
0
0
0
0
0
0
0
0
0
0
0
0
0
0
1895.03
0
0
0
0
0
0
0
0
0
0
0
0
0
0
0
0
0
0
0
0
0
0
0
274.559
0
0
0
0
0
0
0
0
0
0
0
0
0
0
0
0
0
0
0
0
0
0
0
343.919
0
0
0
0
2106.66
0
0
0
0
0
0
0
0
0
0
0
0
0
0
0
0
0
0
823.008
0
0
0
0
0
0
0
0
0
0
0
0
0
0
0
0
0
0
0
0
0
0
0
2679.15
0
0
9373.18
0
0
0
0
0
0
0
0
0
0
0
0
0
0
0
0
0
0
0
0
5747.6
6600.25
0
0
6947.28
10672.8
0
0
5509.62
4400.75
0
0
2272.42
0
0
0
679.487
0
0
0
452.721
0
0
0
53.7505
0
0
0
530.563
0
0
0
2363.18
0
0
0
3909.2
5153.72
0
0
1950.74
0
0
0
362.774
0
0
0
0
0
0
0
296.885
0
0
0
501.722
0
0
0
1374.5
0
0
0
4200.25
4327.87
0
0
4470.96
5218.49
0
0
1850.38
0
0
0
687.422
0
0
0
1137.19
0
0
0
955.754
0
0
0
0
0
0
0
0
0
0
0
104.147
0
0
0
186.646
0
0
0
95.1711
0
0
0
826.575
0
0
0
0
0
0
0
0
0
0
0
10.9511
0
0
0
3335.29
0
0
0
0
0
0
0
0
0
0
0
0
0
0
0
0
0
0
0
0
0
0
0
117.52
288.112
557.835
2969.4
3683.19
1217.63
95.4094
0
0
0
112.211
0
0
0
0
0
0
0
0
0
0
0
0
0
0
0
0
0
0
0
0
0
0
0
0
0
0
0
0
0
0
0
0
0
0
0
0
0
0
0
0
0
0
0
0
0
0
0
0
0
0
0
0
0
0
0
0
0
0
0
0
0
0
0
0
0
0
0
0
0
0
0
</DataArray>
</PointData>
<Cells>
<DataArray type='Int32' Name='connectivity' format='ascii'>
0
1
2
3
4
5
6
7
8
9
10
11
12
13
14
15
16
17
18
19
20
21
22
23
24
25
26
27
28
29
30
31
32
33
34
35
36
37
38
39
40
41
42
43
44
45
46
47
48
49
50
51
52
53
54
55
56
57
58
59
60
61
62
63
64
65
66
67
68
69
70
71
72
73
74
75
76
77
78
79
80
81
82
83
84
85
86
87
88
89
90
91
92
93
94
95
96
97
98
99
100
101
102
103
104
105
106
107
108
109
110
111
112
113
114
115
116
117
118
119
120
121
122
123
124
125
126
127
128
129
130
131
132
133
134
135
136
137
138
139
140
141
142
143
144
145
146
147
148
149
150
151
152
153
154
155
156
157
158
159
160
161
162
163
164
165
166
167
168
169
170
171
172
173
174
175
176
177
178
179
180
181
182
183
184
185
186
187
188
189
190
191
192
193
194
195
196
197
198
199
200
201
202
203
204
205
206
207
208
209
210
211
212
213
214
215
216
217
218
219
220
221
222
223
224
225
226
227
228
229
230
231
232
233
234
235
236
237
238
239
240
241
242
243
244
245
246
247
248
249
250
251
252
253
254
255
256
257
258
259
260
261
262
263
264
265
266
267
268
269
270
271
272
273
274
275
276
277
278
279
280
281
282
283
284
285
286
287
288
289
290
291
292
293
294
295
296
297
298
299
300
301
302
303
304
305
306
307
308
309
310
311
312
313
314
315
316
317
318
319
320
321
322
323
324
325
326
327
328
329
330
331
332
333
334
335
336
337
338
339
340
341
342
343
344
345
346
347
348
349
350
351
352
353
354
355
356
357
358
359
360
361
362
363
364
365
366
367
368
369
370
371
372
373
374
375
376
377
378
379
380
381
382
383
384
385
386
387
388
389
390
391
392
393
394
395
396
397
398
399
400
401
402
403
404
405
406
407
408
409
410
411
412
413
414
415
416
417
418
419
420
421
422
423
424
425
426
427
428
429
430
431
432
433
434
435
436
437
438
439
440
441
442
443
444
445
446
447
448
449
450
451
452
453
454
455
456
457
458
459
460
461
462
463
464
465
466
467
468
469
470
471
472
473
474
475
476
477
478
479
480
481
482
483
484
485
486
487
488
489
490
491
492
493
494
495
496
497
498
499
500
501
502
503
504
505
506
507
508
509
510
511
512
513
514
515
516
517
518
519
520
521
522
523
524
525
526
527
528
529
530
531
532
533
534
535
536
537
538
539
540
541
542
543
544
545
546
547
548
549
550
551
552
553
554
555
556
557
558
559
560
561
562
563
564
565
566
567
568
569
570
571
572
573
574
575
576
577
578
579
580
581
582
583
</DataArray>
<DataArray type='Int32' Name='offsets' format='ascii'>
1
2
3
4
5
6
7
8
9
10
11
12
13
14
15
16
17
18
19
20
21
22
23
24
25
26
27
28
29
30
31
32
33
34
35
36
37
38
39
40
41
42
43
44
45
46
47
48
49
50
51
52
53
54
55
56
57
58
59
60
61
62
63
64
65
66
67
68
69
70
71
72
73
74
75
76
77
78
79
80
81
82
83
84
85
86
87
88
89
90
91
92
93
94
95
96
97
98
99
100
101
102
103
104
105
106
107
108
109
110
111
112
113
114
115
116
117
118
119
120
121
122
123
124
125
126
127
128
129
130
131
132
133
134
135
136
137
138
139
140
141
142
143
144
145
146
147
148
149
150
151
152
153
154
155
156
157
158
159
160
161
162
163
164
165
166
167
168
169
170
171
172
173
174
175
176
177
178
179
180
181
182
183
184
185
186
187
188
189
190
191
192
193
194
195
196
197
198
199
200
201
202
203
204
205
206
207
208
209
210
211
212
213
214
215
216
217
218
219
220
221
222
223
224
225
226
227
228
229
230
231
232
233
234
235
236
237
238
239
240
241
242
243
244
245
246
247
248
249
250
251
252
253
254
255
256
257
258
259
260
261
262
263
264
265
266
267
268
269
270
271
272
273
274
275
276
277
278
279
280
281
282
283
284
285
286
287
288
289
290
291
292
293
294
295
296
297
298
299
300
301
302
303
304
305
306
307
308
309
310
311
312
313
314
315
316
317
318
319
320
321
322
323
324
325
326
327
328
329
330
331
332
333
334
335
336
337
338
339
340
341
342
343
344
345
346
347
348
349
350
351
352
353
354
355
356
357
358
359
360
361
362
363
364
365
366
367
368
369
370
371
372
373
374
375
376
377
378
379
380
381
382
383
384
385
386
387
388
389
390
391
392
393
394
395
396
397
398
399
400
401
402
403
404
405
406
407
408
409
410
411
412
413
414
415
416
417
418
419
420
421
422
423
424
425
426
427
428
429
430
431
432
433
434
435
436
437
438
439
440
441
442
443
444
445
446
447
448
449
450
451
452
453
454
455
456
457
458
459
460
461
462
463
464
465
466
467
468
469
470
471
472
473
474
475
476
477
478
479
480
481
482
483
484
485
486
487
488
489
490
491
492
493
494
495
496
497
498
499
500
501
502
503
504
505
506
507
508
509
510
511
512
513
514
515
516
517
518
519
520
521
522
523
524
525
526
527
528
529
530
531
532
533
534
535
536
537
538
539
540
541
542
543
544
545
546
547
548
549
550
551
552
553
554
555
556
557
558
559
560
561
562
563
564
565
566
567
568
569
570
571
572
573
574
575
576
577
578
579
580
581
582
583
584
</DataArray>
<DataArray type='UInt8' Name='types' format='ascii'>
1
1
1
1
1
1
1
1
1
1
1
1
1
1
1
1
1
1
1
1
1
1
1
1
1
1
1
1
1
1
1
1
1
1
1
1
1
1
1
1
1
1
1
1
1
1
1
1
1
1
1
1
1
1
1
1
1
1
1
1
1
1
1
1
1
1
1
1
1
1
1
1
1
1
1
1
1
1
1
1
1
1
1
1
1
1
1
1
1
1
1
1
1
1
1
1
1
1
1
1
1
1
1
1
1
1
1
1
1
1
1
1
1
1
1
1
1
1
1
1
1
1
1
1
1
1
1
1
1
1
1
1
1
1
1
1
1
1
1
1
1
1
1
1
1
1
1
1
1
1
1
1
1
1
1
1
1
1
1
1
1
1
1
1
1
1
1
1
1
1
1
1
1
1
1
1
1
1
1
1
1
1
1
1
1
1
1
1
1
1
1
1
1
1
1
1
1
1
1
1
1
1
1
1
1
1
1
1
1
1
1
1
1
1
1
1
1
1
1
1
1
1
1
1
1
1
1
1
1
1
1
1
1
1
1
1
1
1
1
1
1
1
1
1
1
1
1
1
1
1
1
1
1
1
1
1
1
1
1
1
1
1
1
1
1
1
1
1
1
1
1
1
1
1
1
1
1
1
1
1
1
1
1
1
1
1
1
1
1
1
1
1
1
1
1
1
1
1
1
1
1
1
1
1
1
1
1
1
1
1
1
1
1
1
1
1
1
1
1
1
1
1
1
1
1
1
1
1
1
1
1
1
1
1
1
1
1
1
1
1
1
1
1
1
1
1
1
1
1
1
1
1
1
1
1
1
1
1
1
1
1
1
1
1
1
1
1
1
1
1
1
1
1
1
1
1
1
1
1
1
1
1
1
1
1
1
1
1
1
1
1
1
1
1
1
1
1
1
1
1
1
1
1
1
1
1
1
1
1
1
1
1
1
1
1
1
1
1
1
1
1
1
1
1
1
1
1
1
1
1
1
1
1
1
1
1
1
1
1
1
1
1
1
1
1
1
1
1
1
1
1
1
1
1
1
1
1
1
1
1
1
1
1
1
1
1
1
1
1
1
1
1
1
1
1
1
1
1
1
1
1
1
1
1
1
1
1
1
1
1
1
1
1
1
1
1
1
1
1
1
1
1
1
1
1
1
1
1
1
1
1
1
1
1
1
1
1
1
1
1
1
1
1
1
1
1
1
1
1
1
1
1
1
1
1
1
1
1
1
1
1
1
1
1
1
1
1
1
1
1
1
1
1
1
1
1
1
1
1
1
1
1
1
1
1
1
1
1
1
1
1
1
1
1
1
1
1
1
1
1
1
1
1
1
</DataArray>
</Cells>
</Piece>
</UnstructuredGrid>
</VTKFile>
