<?xml version='1.0' encoding='UTF-8'?>
<VTKFile xmlns='VTK' byte_order='LittleEndian' version='0.1' type='UnstructuredGrid'>
<UnstructuredGrid>
<Piece NumberOfCells='584' NumberOfPoints='584'>
<Points>
<DataArray NumberOfComponents='3' type='Float32' Name='Position' format='ascii'>
-0.075 0 -0.075
-0.075 0 -0.05
-0.075 0 -0.025
-0.075 0 0
-0.075 0 0.025
-0.075 0 0.05
-0.075 0 0.075
-0.075 0 0.1
-0.075 0 0.125
-0.075 0 0.15
-0.075 0 0.175
-0.075 0 0.2
-0.075 0 0.225
-0.075 0 0.25
-0.075 0 0.275
-0.075 0 0.3
-0.075 0 0.325
-0.075 0 0.35
-0.075 0 0.375
-0.075 0 0.4
-0.075 0 0.425
-0.075 0 0.45
-0.075 0 0.475
-0.075 0 0.5
-0.075 0 0.525
-0.075 0 0.55
-0.075 0 0.575
-0.075 0 0.6
-0.05 0 -0.075
-0.05 0 -0.05
-0.05 0 -0.025
-0.05 0 0
-0.05 0 0.025
-0.05 0 0.05
-0.05 0 0.075
-0.05 0 0.1
-0.05 0 0.125
-0.05 0 0.15
-0.05 0 0.175
-0.05 0 0.2
-0.05 0 0.225
-0.05 0 0.25
-0.05 0 0.275
-0.05 0 0.3
-0.05 0 0.325
-0.05 0 0.35
-0.05 0 0.375
-0.05 0 0.4
-0.05 0 0.425
-0.05 0 0.45
-0.05 0 0.475
-0.05 0 0.5
-0.05 0 0.525
-0.05 0 0.55
-0.05 0 0.575
-0.05 0 0.6
-0.025 0 -0.075
-0.025 0 -0.05
-0.025 0 -0.025
-0.025 0 0
-0.025 0 0.025
-0.025 0 0.05
-0.025 0 0.075
-0.025 0 0.1
-0.025 0 0.125
-0.025 0 0.15
-0.025 0 0.175
-0.025 0 0.2
-0.025 0 0.225
-0.025 0 0.25
-0.025 0 0.275
-0.025 0 0.3
-0.025 0 0.325
-0.025 0 0.35
-0.025 0 0.375
-0.025 0 0.4
-0.025 0 0.425
-0.025 0 0.45
-0.025 0 0.475
-0.025 0 0.5
-0.025 0 0.525
-0.025 0 0.55
-0.025 0 0.575
-0.025 0 0.6
0 0 -0.075
0 0 -0.05
0 0 -0.025
0 0 0
0 0 0.025
0 0 0.05
0 0 0.075
0 0 0.1
0 0 0.125
0 0 0.15
0 0 0.175
0 0 0.2
0 0 0.225
0 0 0.25
0 0 0.275
0 0 0.3
0 0 0.325
0 0 0.35
0 0 0.375
0 0 0.4
0 0 0.425
0 0 0.45
0 0 0.475
0 0 0.5
0 0 0.525
0 0 0.55
0 0 0.575
0 0 0.6
0.025 0 -0.075
0.025 0 -0.05
0.025 0 -0.025
0.025 0 0
0.181641 0 0.0999399
0.151067 0 0.0573929
0.200097 0 0.0304515
0.0551201 0 0.0694685
0.223189 0 0.664491
0.054827 0 0.021105
0.235127 0 0.136825
172.725 0 -209.081
0.124301 0 0.0339819
0.177118 0 0.112732
0.343566 0 0.084377
0.0700092 0 0.0471989
0.189602 0 0.0171343
0.0397475 0 0.12335
0.048423 0 0.0558117
0.320289 0 0.0655464
0.232902 0 0.0518251
0.123468 0 0.0222381
0.176903 0 0.0891261
0.435881 0 0.183726
0.05 0 -0.075
0.05 0 -0.05
0.05 0 -0.025
0.05 0 0
0.264723 0 0.118252
0.238573 0 0.0814942
-4.38592 0 3.26609
0.273431 0 0.0544598
0.220662 0 0.119108
0.319716 0 -0.29716
0.765733 0 0.0220027
-1.1595 0 -5.737
0.346492 0 0.044801
0.287663 0 0.048485
-172.016 0 209.309
0.317178 0 0.0805968
0.244109 0 0.0654544
0.383447 0 0.211194
0.217148 0 0.042231
0.012658 0 0.102172
-0.829224 0 -0.705477
0.393195 0 0.150123
0.325747 0 0.026068
0.030063 0 0.0422378
0.075 0 -0.075
0.075 0 -0.05
0.075 0 -0.025
0.075 0 0
0.354422 0 0.0791085
0.393011 0 0.08193
0.646079 0 0.185927
-0.329003 0 -1.59491
-8.6548 0 -0.631311
-3.53424 0 -0.00553768
0.467795 0 0.0394793
0.449053 0 0.0951547
0.546682 0 0.0868493
0.359683 0 0.0998841
0.512058 0 0.0663275
-0.417763 0 1.12802
0.266423 0 0.65618
0.447964 0 0.176683
0.676891 0 0.511553
0.264701 0 0.0417554
0.640594 0 0.415771
0.226853 0 0.024975
0.733856 0 0.0264405
0.406975 0 0.127115
0.1 0 -0.075
0.1 0 -0.05
0.1 0 -0.025
0.1 0 0
1.00481 0 0.0605804
0.558974 0 1.29043
0.686921 0 0.0231335
0.801372 0 0.0805934
0.605175 0 0.050909
3.18279 0 -4.03949
0.591458 0 0.026755
0.531785 0 0.0771101
14.3099 0 2.52024
9.82541 0 -2.65808
0.558404 0 0.0197372
0.634813 0 0.304161
0.94123 0 0.219425
0.54507 0 0.231171
-7.29006 0 1.89924
0.840895 0 0.0208594
1.99802 0 5.91658
0.853216 0 0.0292849
-1.27357 0 -1.9925
0.259206 0 0.021447
0.125 0 -0.075
0.125 0 -0.05
0.125 0 -0.025
0.125 0 0
0.953003 0 0.198129
0.912117 0 -0.00868393
0.850175 0 0.0492012
0.977596 0 0.204271
4.10287 0 0.381478
-2.57576 0 1.63616
0.698914 0 0.0922438
0.968625 0 0.120692
0.796938 0 0.0330254
-0.44573 0 2.6454
0.610093 0 0.177313
0.902683 0 0.0495979
0.491458 0 0.358381
0.756389 0 0.0827415
23.4229 0 -43.1085
0.957751 0 -1.53708
0.373822 0 0.0192782
0.72363 0 0.0517589
0.560781 0 0.0451937
0.584948 0 0.710566
0.15 0 -0.075
0.15 0 -0.05
0.15 0 -0.025
0.15 0 0
2.11724 0 -4.48422
-2.91749 0 -3.1061
0.902959 0 0.27998
0.975011 0 0.0742614
0.829849 0 0.153173
4.88653 0 3.54988
0.998631 0 0.198917
0.999449 0 0.04193
0.553759 0 0.353053
0.86791 0 0.324117
0.970275 0 0.101644
0.924528 0 0.0452599
0.46646 0 0.28597
0.571388 0 0.0398374
0.459949 0 0.21671
0.620894 0 0.264711
0.925072 0 0.286697
0.828083 0 0.451068
0.981125 0 0.156194
0.61042 0 0.074986
0.175 0 -0.075
0.175 0 -0.05
0.175 0 -0.025
0.175 0 0
-1.4711 0 4.33499
1.00079 0 0.0204939
0.16203 0 2.92545
3.33958 0 2.81177
0.977188 0 0.17423
0.538157 0 0.472679
-1.72016 0 -4.11663
0.640259 0 0.251688
-16.4397 0 32.4208
4.22142 0 0.352004
0.989425 0 0.28208
0.777664 0 0.0227436
0.452524 0 2.51341
2.99508 0 -3.61002
0.878328 0 0.186537
0.360018 0 0.0245191
-0.250753 0 -2.05173
0.77897 0 0.11374
0.682821 0 1.48165
0.277951 0 0.214363
0.2 0 -0.075
0.2 0 -0.05
0.2 0 -0.025
0.2 0 0
-10.4063 0 -13.1171
0.822774 0 0.339379
95.7438 0 -31.2489
2.79838 0 -0.872308
0.987026 0 0.247978
0.189137 0 0.176644
0.469924 0 0.220412
0.79045 0 0.56558
0.459939 0 0.595662
0.86601 0 0.460203
-0.275522 0 1.03625
9.39901 0 5.22136
5.92026 0 1.62471
0.431237 0 0.686585
0.879219 0 0.199366
0.323391 0 0.432096
0.531711 0 0.158396
11.3352 0 3.97793
0.609167 0 0.0862141
0.990459 0 0.0784432
0.225 0 -0.075
0.225 0 -0.05
0.225 0 -0.025
0.225 0 0
5.84695 0 -1.2385
0.854496 0 0.282615
0.753583 0 0.174639
3.72719 0 1.68788
18.5319 0 16.6004
-0.564739 0 0.494281
-2.47525 0 -3.28602
1.03795 0 0.612455
-98.2779 0 30.1034
1.58442 0 -3.67451
0.957357 0 0.284802
11.307 0 13.957
2.25499 0 1.61144
1.01774 0 0.623337
2.93166 0 5.22972
0.713685 0 0.774504
2.55629 0 0.0384193
-1.98646 0 4.38352
0.486257 0 0.398646
0.464377 0 0.797203
0.25 0 -0.075
0.25 0 -0.05
0.25 0 -0.025
0.25 0 0
0.647132 0 0.36207
0.431896 0 0.482099
0.81997 0 0.424096
0.464076 0 0.472201
-25.6556 0 -6.70489
0.681426 0 0.229304
-0.0515991 0 0.853626
5.67141 0 3.72898
1.01342 0 0.217773
-0.406994 0 1.23804
0.776316 0 0.0814245
0.155287 0 0.0258954
-0.562227 0 1.67314
0.574486 0 0.418074
0.601463 0 0.280054
1.01022 0 0.293034
0.985181 0 0.138482
5.29864 0 -4.88488
0.0434698 0 -1.24783
-3.80127 0 5.51655
0.275 0 -0.075
0.275 0 -0.05
0.275 0 -0.025
0.275 0 0
0.3 0 -0.075
0.3 0 -0.05
0.3 0 -0.025
0.3 0 0
0.325 0 -0.075
0.325 0 -0.05
0.325 0 -0.025
0.325 0 0
0.35 0 -0.075
0.35 0 -0.05
0.35 0 -0.025
0.35 0 0
0.375 0 -0.075
0.375 0 -0.05
0.375 0 -0.025
0.375 0 0
0.4 0 -0.075
0.4 0 -0.05
0.4 0 -0.025
0.4 0 0
0.425 0 -0.075
0.425 0 -0.05
0.425 0 -0.025
0.425 0 0
0.45 0 -0.075
0.45 0 -0.05
0.45 0 -0.025
0.45 0 0
0.475 0 -0.075
0.475 0 -0.05
0.475 0 -0.025
0.475 0 0
0.5 0 -0.075
0.5 0 -0.05
0.5 0 -0.025
0.5 0 0
0.525 0 -0.075
0.525 0 -0.05
0.525 0 -0.025
0.525 0 0
0.55 0 -0.075
0.55 0 -0.05
0.55 0 -0.025
0.55 0 0
0.575 0 -0.075
0.575 0 -0.05
0.575 0 -0.025
0.575 0 0
0.6 0 -0.075
0.6 0 -0.05
0.6 0 -0.025
0.6 0 0
0.625 0 -0.075
0.625 0 -0.05
0.625 0 -0.025
0.625 0 0
0.65 0 -0.075
0.65 0 -0.05
0.65 0 -0.025
0.65 0 0
0.675 0 -0.075
0.675 0 -0.05
0.675 0 -0.025
0.675 0 0
0.7 0 -0.075
0.7 0 -0.05
0.7 0 -0.025
0.7 0 0
0.725 0 -0.075
0.725 0 -0.05
0.725 0 -0.025
0.725 0 0
0.75 0 -0.075
0.75 0 -0.05
0.75 0 -0.025
0.75 0 0
0.775 0 -0.075
0.775 0 -0.05
0.775 0 -0.025
0.775 0 0
0.8 0 -0.075
0.8 0 -0.05
0.8 0 -0.025
0.8 0 0
0.825 0 -0.075
0.825 0 -0.05
0.825 0 -0.025
0.825 0 0
0.85 0 -0.075
0.85 0 -0.05
0.85 0 -0.025
0.85 0 0
0.875 0 -0.075
0.875 0 -0.05
0.875 0 -0.025
0.875 0 0
0.9 0 -0.075
0.9 0 -0.05
0.9 0 -0.025
0.9 0 0
0.925 0 -0.075
0.925 0 -0.05
0.925 0 -0.025
0.925 0 0
0.95 0 -0.075
0.95 0 -0.05
0.95 0 -0.025
0.95 0 0
0.975 0 -0.075
0.975 0 -0.05
0.975 0 -0.025
0.975 0 0
1 0 -0.075
1 0 -0.05
1 0 -0.025
1 0 0
1.025 0 -0.075
1.025 0 -0.05
1.025 0 -0.025
1.025 0 0
1.025 0 0.025
1.025 0 0.05
1.025 0 0.075
1.025 0 0.1
1.025 0 0.125
1.025 0 0.15
1.025 0 0.175
1.025 0 0.2
1.025 0 0.225
1.025 0 0.25
1.025 0 0.275
1.025 0 0.3
1.025 0 0.325
1.025 0 0.35
1.025 0 0.375
1.025 0 0.4
1.025 0 0.425
1.025 0 0.45
1.025 0 0.475
1.025 0 0.5
1.025 0 0.525
1.025 0 0.55
1.025 0 0.575
1.025 0 0.6
1.05 0 -0.075
1.05 0 -0.05
1.05 0 -0.025
1.05 0 0
1.05 0 0.025
1.05 0 0.05
1.05 0 0.075
1.05 0 0.1
1.05 0 0.125
1.05 0 0.15
1.05 0 0.175
1.05 0 0.2
1.05 0 0.225
1.05 0 0.25
1.05 0 0.275
1.05 0 0.3
1.05 0 0.325
1.05 0 0.35
1.05 0 0.375
1.05 0 0.4
1.05 0 0.425
1.05 0 0.45
1.05 0 0.475
1.05 0 0.5
1.05 0 0.525
1.05 0 0.55
1.05 0 0.575
1.05 0 0.6
1.075 0 -0.075
1.075 0 -0.05
1.075 0 -0.025
1.075 0 0
1.075 0 0.025
1.075 0 0.05
1.075 0 0.075
1.075 0 0.1
1.075 0 0.125
1.075 0 0.15
1.075 0 0.175
1.075 0 0.2
1.075 0 0.225
1.075 0 0.25
1.075 0 0.275
1.075 0 0.3
1.075 0 0.325
1.075 0 0.35
1.075 0 0.375
1.075 0 0.4
1.075 0 0.425
1.075 0 0.45
1.075 0 0.475
1.075 0 0.5
1.075 0 0.525
1.075 0 0.55
1.075 0 0.575
1.075 0 0.6
1.1 0 -0.075
1.1 0 -0.05
1.1 0 -0.025
1.1 0 0
1.1 0 0.025
1.1 0 0.05
1.1 0 0.075
1.1 0 0.1
1.1 0 0.125
1.1 0 0.15
1.1 0 0.175
1.1 0 0.2
1.1 0 0.225
1.1 0 0.25
1.1 0 0.275
1.1 0 0.3
1.1 0 0.325
1.1 0 0.35
1.1 0 0.375
1.1 0 0.4
1.1 0 0.425
1.1 0 0.45
1.1 0 0.475
1.1 0 0.5
1.1 0 0.525
1.1 0 0.55
1.1 0 0.575
1.1 0 0.6
</DataArray>
</Points>
<PointData>
<DataArray NumberOfComponents='1' type='Int32' Name='ParticleType' format='ascii'>
2
2
2
2
2
2
2
2
2
2
2
2
2
2
2
2
2
2
2
2
2
2
2
2
2
2
1
1
2
2
2
2
2
2
2
2
2
2
2
2
2
2
2
2
2
2
2
2
2
2
2
2
2
2
1
1
2
2
1
1
1
1
1
1
1
1
1
1
1
1
1
1
1
1
1
1
1
1
1
1
1
1
1
1
2
2
1
1
1
1
1
1
1
1
1
1
1
1
1
1
1
1
1
1
1
1
1
1
1
1
1
1
2
2
1
1
0
0
0
0
0
0
0
0
0
0
0
0
0
0
0
0
0
0
0
0
2
2
1
1
0
0
0
0
0
0
0
0
0
0
0
0
0
0
0
0
0
0
0
0
2
2
1
1
0
0
0
0
0
0
0
0
0
0
0
0
0
0
0
0
0
0
0
0
2
2
1
1
0
0
0
0
0
0
0
0
0
0
0
0
0
0
0
0
0
0
0
0
2
2
1
1
0
0
0
0
0
0
0
0
0
0
0
0
0
0
0
0
0
0
0
0
2
2
1
1
0
0
0
0
0
0
0
0
0
0
0
0
0
0
0
0
0
0
0
0
2
2
1
1
0
0
0
0
0
0
0
0
0
0
0
0
0
0
0
0
0
0
0
0
2
2
1
1
0
0
0
0
0
0
0
0
0
0
0
0
0
0
0
0
0
0
0
0
2
2
1
1
0
0
0
0
0
0
0
0
0
0
0
0
0
0
0
0
0
0
0
0
2
2
1
1
0
0
0
0
0
0
0
0
0
0
0
0
0
0
0
0
0
0
0
0
2
2
1
1
2
2
1
1
2
2
1
1
2
2
1
1
2
2
1
1
2
2
1
1
2
2
1
1
2
2
1
1
2
2
1
1
2
2
1
1
2
2
1
1
2
2
1
1
2
2
1
1
2
2
1
1
2
2
1
1
2
2
1
1
2
2
1
1
2
2
1
1
2
2
1
1
2
2
1
1
2
2
1
1
2
2
1
1
2
2
1
1
2
2
1
1
2
2
1
1
2
2
1
1
2
2
1
1
2
2
1
1
2
2
1
1
2
2
1
1
2
2
1
1
1
1
1
1
1
1
1
1
1
1
1
1
1
1
1
1
1
1
1
1
1
1
1
1
2
2
1
1
1
1
1
1
1
1
1
1
1
1
1
1
1
1
1
1
1
1
1
1
1
1
1
1
2
2
2
2
2
2
2
2
2
2
2
2
2
2
2
2
2
2
2
2
2
2
2
2
2
2
1
1
2
2
2
2
2
2
2
2
2
2
2
2
2
2
2
2
2
2
2
2
2
2
2
2
2
2
1
1
</DataArray>
<DataArray NumberOfComponents='1' type='Float32' Name='Velocity' format='ascii'>
0
0
0
0
0
0
0
0
0
0
0
0
0
0
0
0
0
0
0
0
0
0
0
0
0
0
0
0
0
0
0
0
0
0
0
0
0
0
0
0
0
0
0
0
0
0
0
0
0
0
0
0
0
0
0
0
0
0
0
0
0
0
0
0
0
0
0
0
0
0
0
0
0
0
0
0
0
0
0
0
0
0
0
0
0
0
0
0
0
0
0
0
0
0
0
0
0
0
0
0
0
0
0
0
0
0
0
0
0
0
0
0
0
0
0
0
0.780445
0.69078
1.41581
0.683287
16.4668
0.822647
2.01987
7974.52
0.692247
2.92933
0.523233
0.376112
0.465403
0.552996
0.586175
5.37208
0.690693
0.999596
0.680423
0.916333
0
0
0
0
1.89068
0.736488
101.713
2.09355
2.67273
12.17
1.66731
3025.84
0.895434
3.25648
7969.98
3.56262
0.693262
2.63168
0.49474
1.11677
30.0737
1.67611
2.40232
0.480712
0
0
0
0
0.644859
1.23083
2.43415
34.7248
191.052
79.4764
3.58728
0.506684
2.22413
2.151
4.05696
25.4037
11.8676
1.42276
10.0357
0.473936
7.74268
0.38434
0.93684
1.80585
0
0
0
0
3.18511
26.9031
9.39807
1.44336
1.69181
256.016
1.10668
19.9072
247.072
183.507
1.9559
4.47389
4.93831
1.90131
164.406
1.19338
2992.26
2.71603
54.6369
1.22131
0
0
0
0
2.08951
0.226643
2.33031
3.08846
75.0559
83.9104
1.11121
0.306635
6.13494
48.7594
3.94309
3.36654
5.54847
1.94646
920.955
32.8438
3.323
1.7187
1.63161
10.7225
0
0
0
0
89.126
141.486
6.16574
2.49548
2.83762
151.303
0.895611
1.69043
5.97674
11.5175
1.33384
3.30482
6.29076
2.56403
4.43638
2.76973
7.15757
22.9191
1.45887
2.53343
0
0
0
0
88.2996
1.0954
45.488
89.2849
7.04501
6.7914
91.5974
1.77535
690.292
49.6302
2.22159
4.93093
36.5683
75.0442
4.12766
4.49409
44.5337
0.690838
33.2953
7.55747
0
0
0
0
347.942
4.20727
1726.68
45.9877
0.474829
6.57681
4.70797
6.17385
3.77977
9.24622
34.1999
190.166
85.1146
12.2972
1.43876
8.22511
12.0555
230.068
1.30851
2.15724
0
0
0
0
121.725
3.10337
1.3477
77.451
98.3591
3.51692
78.9047
1.27351
1780.97
57.8581
2.67806
346.116
36.2931
8.1619
105.267
13.7557
32.5112
263.703
5.15728
15.7197
0
0
0
0
33.9679
3.25018
4.28689
3.73832
113.569
1.37107
2.97846
110.877
0.808374
22.9642
1.43299
1.35756
36.446
22.1587
4.7255
1.27452
0.751789
102.16
42.6889
107.413
0
0
0
0
0
0
0
0
0
0
0
0
0
0
0
0
0
0
0
0
0
0
0
0
0
0
0
0
0
0
0
0
0
0
0
0
0
0
0
0
0
0
0
0
0
0
0
0
0
0
0
0
0
0
0
0
0
0
0
0
0
0
0
0
0
0
0
0
0
0
0
0
0
0
0
0
0
0
0
0
0
0
0
0
0
0
0
0
0
0
0
0
0
0
0
0
0
0
0
0
0
0
0
0
0
0
0
0
0
0
0
0
0
0
0
0
0
0
0
0
0
0
0
0
0
0
0
0
0
0
0
0
0
0
0
0
0
0
0
0
0
0
0
0
0
0
0
0
0
0
0
0
0
0
0
0
0
0
0
0
0
0
0
0
0
0
0
0
0
0
0
0
0
0
0
0
0
0
0
0
0
0
0
0
0
0
0
0
0
0
0
0
0
0
0
0
0
0
0
0
0
0
0
0
0
0
0
0
0
0
0
0
0
0
0
0
0
0
0
0
0
0
0
0
0
0
0
0
0
0
0
0
</DataArray>
<DataArray NumberOfComponents='1' type='Float32' Name='pressure' format='ascii'>
0
0
0
0
0
0
0
0
0
0
0
0
0
0
0
0
0
0
0
0
0
0
0
0
0
0
0
0
0
0
0
0
0
0
0
0
0
0
0
0
0
0
0
0
0
0
0
0
0
0
0
0
0
0
0
0
0
0
4.34832
39.0683
0
789.223
2903.03
5254.3
3300.25
859.594
0
0
0
0
0
0
0
0
0
0
0
0
0
0
0
0
0
0
0
0
6.23125
0
0
0
0
7994.91
0
0
0
0
0
0
0
0
0
0
0
0
0
0
0
0
0
0
0
0
0
0
0
0
120.745
0
7431.98
0
0
0
0
0
0
0
5971.83
0
10368.7
0
0
0
7095.12
2833.53
0
0
0
0
676.171
0
0
0
0
3212.17
0
0
13172.9
0
0
0
0
0
2969.64
0
7465.15
3090.75
0
0
0
0
0
0
552.464
0
4954.95
0
0
0
0
0
0
0
0
0
0
0
0
0
0
6049.37
0
8606.74
0
0
0
0
1072.64
0
4061.43
0
0
0
0
0
0
0
0
0
0
0
0
0
0
0
0
0
0
0
0
0
2941.97
2741.03
0
30126.7
0
0
0
0
0
0
26508
0
0
0
0
0
0
0
0
0
7748.5
0
0
0
4348.82
3282.66
0
0
0
0
0
0
0
0
0
0
0
0
0
9661.47
0
0
0
0
0
0
0
0
7223.37
7092.13
0
0
0
0
0
0
0
0
0
0
0
29065
0
0
0
480.533
0
0
0
0
0
0
8400.17
11022.3
0
0
0
0
0
0
0
0
0
0
0
0
0
0
0
0
0
0
0
0
0
0
6496.55
7417.19
0
0
0
0
0
0
0
0
0
0
0
0
0
0
0
0
0
0
0
0
0
0
4543.16
3589.4
0
0
0
0
0
0
0
0
12147.1
0
0
0
0
0
0
0
0
0
0
0
0
0
2237.96
0
0
0
728.048
0
0
0
741.252
0
0
0
1364.18
1880.34
0
0
2008.81
2731.55
0
0
546.034
0
0
0
0
0
0
0
0
0
0
0
0
0
0
0
0
0
0
0
0
0
0
0
1063.67
0
0
0
887.74
1114.6
0
0
0
0
0
0
0
0
0
0
0
0
0
0
189.347
0
0
0
593.246
0
0
0
1699.63
0
0
0
4679.33
0
0
0
7384.14
12249.6
0
0
6243.4
0
0
0
5562.73
0
0
0
7594.2
5101.68
0
0
14195.6
0
0
0
26771.3
19388
0
0
26364.8
19340.5
0
0
13941.7
0
0
0
6603.44
0
0
0
5237.1
4320.51
0
0
4721.5
5209.25
5626.96
5855.55
1529.28
0
0
0
0
7680.65
13187.3
0
0
2992.45
0
0
0
0
0
0
0
0
0
0
0
0
0
0
4702.94
4569.46
4390
4242.48
2800.96
1034.7
477.744
1151.9
3419.39
7854.31
9209.99
5415.15
3878.15
3303.79
976.654
0
0
0
0
0
0
0
0
0
1231.38
1043.94
0
0
0
0
0
0
0
0
0
0
0
0
0
0
0
0
0
0
0
0
0
0
0
0
0
0
0
0
0
0
0
0
0
0
0
0
0
0
0
0
0
0
0
0
0
0
0
0
0
0
0
0
0
0
0
0
</DataArray>
</PointData>
<Cells>
<DataArray type='Int32' Name='connectivity' format='ascii'>
0
1
2
3
4
5
6
7
8
9
10
11
12
13
14
15
16
17
18
19
20
21
22
23
24
25
26
27
28
29
30
31
32
33
34
35
36
37
38
39
40
41
42
43
44
45
46
47
48
49
50
51
52
53
54
55
56
57
58
59
60
61
62
63
64
65
66
67
68
69
70
71
72
73
74
75
76
77
78
79
80
81
82
83
84
85
86
87
88
89
90
91
92
93
94
95
96
97
98
99
100
101
102
103
104
105
106
107
108
109
110
111
112
113
114
115
116
117
118
119
120
121
122
123
124
125
126
127
128
129
130
131
132
133
134
135
136
137
138
139
140
141
142
143
144
145
146
147
148
149
150
151
152
153
154
155
156
157
158
159
160
161
162
163
164
165
166
167
168
169
170
171
172
173
174
175
176
177
178
179
180
181
182
183
184
185
186
187
188
189
190
191
192
193
194
195
196
197
198
199
200
201
202
203
204
205
206
207
208
209
210
211
212
213
214
215
216
217
218
219
220
221
222
223
224
225
226
227
228
229
230
231
232
233
234
235
236
237
238
239
240
241
242
243
244
245
246
247
248
249
250
251
252
253
254
255
256
257
258
259
260
261
262
263
264
265
266
267
268
269
270
271
272
273
274
275
276
277
278
279
280
281
282
283
284
285
286
287
288
289
290
291
292
293
294
295
296
297
298
299
300
301
302
303
304
305
306
307
308
309
310
311
312
313
314
315
316
317
318
319
320
321
322
323
324
325
326
327
328
329
330
331
332
333
334
335
336
337
338
339
340
341
342
343
344
345
346
347
348
349
350
351
352
353
354
355
356
357
358
359
360
361
362
363
364
365
366
367
368
369
370
371
372
373
374
375
376
377
378
379
380
381
382
383
384
385
386
387
388
389
390
391
392
393
394
395
396
397
398
399
400
401
402
403
404
405
406
407
408
409
410
411
412
413
414
415
416
417
418
419
420
421
422
423
424
425
426
427
428
429
430
431
432
433
434
435
436
437
438
439
440
441
442
443
444
445
446
447
448
449
450
451
452
453
454
455
456
457
458
459
460
461
462
463
464
465
466
467
468
469
470
471
472
473
474
475
476
477
478
479
480
481
482
483
484
485
486
487
488
489
490
491
492
493
494
495
496
497
498
499
500
501
502
503
504
505
506
507
508
509
510
511
512
513
514
515
516
517
518
519
520
521
522
523
524
525
526
527
528
529
530
531
532
533
534
535
536
537
538
539
540
541
542
543
544
545
546
547
548
549
550
551
552
553
554
555
556
557
558
559
560
561
562
563
564
565
566
567
568
569
570
571
572
573
574
575
576
577
578
579
580
581
582
583
</DataArray>
<DataArray type='Int32' Name='offsets' format='ascii'>
1
2
3
4
5
6
7
8
9
10
11
12
13
14
15
16
17
18
19
20
21
22
23
24
25
26
27
28
29
30
31
32
33
34
35
36
37
38
39
40
41
42
43
44
45
46
47
48
49
50
51
52
53
54
55
56
57
58
59
60
61
62
63
64
65
66
67
68
69
70
71
72
73
74
75
76
77
78
79
80
81
82
83
84
85
86
87
88
89
90
91
92
93
94
95
96
97
98
99
100
101
102
103
104
105
106
107
108
109
110
111
112
113
114
115
116
117
118
119
120
121
122
123
124
125
126
127
128
129
130
131
132
133
134
135
136
137
138
139
140
141
142
143
144
145
146
147
148
149
150
151
152
153
154
155
156
157
158
159
160
161
162
163
164
165
166
167
168
169
170
171
172
173
174
175
176
177
178
179
180
181
182
183
184
185
186
187
188
189
190
191
192
193
194
195
196
197
198
199
200
201
202
203
204
205
206
207
208
209
210
211
212
213
214
215
216
217
218
219
220
221
222
223
224
225
226
227
228
229
230
231
232
233
234
235
236
237
238
239
240
241
242
243
244
245
246
247
248
249
250
251
252
253
254
255
256
257
258
259
260
261
262
263
264
265
266
267
268
269
270
271
272
273
274
275
276
277
278
279
280
281
282
283
284
285
286
287
288
289
290
291
292
293
294
295
296
297
298
299
300
301
302
303
304
305
306
307
308
309
310
311
312
313
314
315
316
317
318
319
320
321
322
323
324
325
326
327
328
329
330
331
332
333
334
335
336
337
338
339
340
341
342
343
344
345
346
347
348
349
350
351
352
353
354
355
356
357
358
359
360
361
362
363
364
365
366
367
368
369
370
371
372
373
374
375
376
377
378
379
380
381
382
383
384
385
386
387
388
389
390
391
392
393
394
395
396
397
398
399
400
401
402
403
404
405
406
407
408
409
410
411
412
413
414
415
416
417
418
419
420
421
422
423
424
425
426
427
428
429
430
431
432
433
434
435
436
437
438
439
440
441
442
443
444
445
446
447
448
449
450
451
452
453
454
455
456
457
458
459
460
461
462
463
464
465
466
467
468
469
470
471
472
473
474
475
476
477
478
479
480
481
482
483
484
485
486
487
488
489
490
491
492
493
494
495
496
497
498
499
500
501
502
503
504
505
506
507
508
509
510
511
512
513
514
515
516
517
518
519
520
521
522
523
524
525
526
527
528
529
530
531
532
533
534
535
536
537
538
539
540
541
542
543
544
545
546
547
548
549
550
551
552
553
554
555
556
557
558
559
560
561
562
563
564
565
566
567
568
569
570
571
572
573
574
575
576
577
578
579
580
581
582
583
584
</DataArray>
<DataArray type='UInt8' Name='types' format='ascii'>
1
1
1
1
1
1
1
1
1
1
1
1
1
1
1
1
1
1
1
1
1
1
1
1
1
1
1
1
1
1
1
1
1
1
1
1
1
1
1
1
1
1
1
1
1
1
1
1
1
1
1
1
1
1
1
1
1
1
1
1
1
1
1
1
1
1
1
1
1
1
1
1
1
1
1
1
1
1
1
1
1
1
1
1
1
1
1
1
1
1
1
1
1
1
1
1
1
1
1
1
1
1
1
1
1
1
1
1
1
1
1
1
1
1
1
1
1
1
1
1
1
1
1
1
1
1
1
1
1
1
1
1
1
1
1
1
1
1
1
1
1
1
1
1
1
1
1
1
1
1
1
1
1
1
1
1
1
1
1
1
1
1
1
1
1
1
1
1
1
1
1
1
1
1
1
1
1
1
1
1
1
1
1
1
1
1
1
1
1
1
1
1
1
1
1
1
1
1
1
1
1
1
1
1
1
1
1
1
1
1
1
1
1
1
1
1
1
1
1
1
1
1
1
1
1
1
1
1
1
1
1
1
1
1
1
1
1
1
1
1
1
1
1
1
1
1
1
1
1
1
1
1
1
1
1
1
1
1
1
1
1
1
1
1
1
1
1
1
1
1
1
1
1
1
1
1
1
1
1
1
1
1
1
1
1
1
1
1
1
1
1
1
1
1
1
1
1
1
1
1
1
1
1
1
1
1
1
1
1
1
1
1
1
1
1
1
1
1
1
1
1
1
1
1
1
1
1
1
1
1
1
1
1
1
1
1
1
1
1
1
1
1
1
1
1
1
1
1
1
1
1
1
1
1
1
1
1
1
1
1
1
1
1
1
1
1
1
1
1
1
1
1
1
1
1
1
1
1
1
1
1
1
1
1
1
1
1
1
1
1
1
1
1
1
1
1
1
1
1
1
1
1
1
1
1
1
1
1
1
1
1
1
1
1
1
1
1
1
1
1
1
1
1
1
1
1
1
1
1
1
1
1
1
1
1
1
1
1
1
1
1
1
1
1
1
1
1
1
1
1
1
1
1
1
1
1
1
1
1
1
1
1
1
1
1
1
1
1
1
1
1
1
1
1
1
1
1
1
1
1
1
1
1
1
1
1
1
1
1
1
1
1
1
1
1
1
1
1
1
1
1
1
1
1
1
1
1
1
1
1
1
1
1
1
1
1
1
1
1
1
1
1
1
1
1
1
1
1
1
1
1
1
1
1
1
1
1
1
1
1
1
1
1
1
1
1
1
1
1
1
1
1
1
1
1
1
1
1
1
1
1
1
1
1
1
1
1
1
1
1
1
1
1
1
1
1
1
1
1
1
1
1
1
1
</DataArray>
</Cells>
</Piece>
</UnstructuredGrid>
</VTKFile>
