<?xml version='1.0' encoding='UTF-8'?>
<VTKFile xmlns='VTK' byte_order='LittleEndian' version='0.1' type='UnstructuredGrid'>
<UnstructuredGrid>
<Piece NumberOfCells='584' NumberOfPoints='584'>
<Points>
<DataArray NumberOfComponents='3' type='Float32' Name='Position' format='ascii'>
-0.075 0 -0.075
-0.075 0 -0.05
-0.075 0 -0.025
-0.075 0 0
-0.075 0 0.025
-0.075 0 0.05
-0.075 0 0.075
-0.075 0 0.1
-0.075 0 0.125
-0.075 0 0.15
-0.075 0 0.175
-0.075 0 0.2
-0.075 0 0.225
-0.075 0 0.25
-0.075 0 0.275
-0.075 0 0.3
-0.075 0 0.325
-0.075 0 0.35
-0.075 0 0.375
-0.075 0 0.4
-0.075 0 0.425
-0.075 0 0.45
-0.075 0 0.475
-0.075 0 0.5
-0.075 0 0.525
-0.075 0 0.55
-0.075 0 0.575
-0.075 0 0.6
-0.05 0 -0.075
-0.05 0 -0.05
-0.05 0 -0.025
-0.05 0 0
-0.05 0 0.025
-0.05 0 0.05
-0.05 0 0.075
-0.05 0 0.1
-0.05 0 0.125
-0.05 0 0.15
-0.05 0 0.175
-0.05 0 0.2
-0.05 0 0.225
-0.05 0 0.25
-0.05 0 0.275
-0.05 0 0.3
-0.05 0 0.325
-0.05 0 0.35
-0.05 0 0.375
-0.05 0 0.4
-0.05 0 0.425
-0.05 0 0.45
-0.05 0 0.475
-0.05 0 0.5
-0.05 0 0.525
-0.05 0 0.55
-0.05 0 0.575
-0.05 0 0.6
-0.025 0 -0.075
-0.025 0 -0.05
-0.025 0 -0.025
-0.025 0 0
-0.025 0 0.025
-0.025 0 0.05
-0.025 0 0.075
-0.025 0 0.1
-0.025 0 0.125
-0.025 0 0.15
-0.025 0 0.175
-0.025 0 0.2
-0.025 0 0.225
-0.025 0 0.25
-0.025 0 0.275
-0.025 0 0.3
-0.025 0 0.325
-0.025 0 0.35
-0.025 0 0.375
-0.025 0 0.4
-0.025 0 0.425
-0.025 0 0.45
-0.025 0 0.475
-0.025 0 0.5
-0.025 0 0.525
-0.025 0 0.55
-0.025 0 0.575
-0.025 0 0.6
0 0 -0.075
0 0 -0.05
0 0 -0.025
0 0 0
0 0 0.025
0 0 0.05
0 0 0.075
0 0 0.1
0 0 0.125
0 0 0.15
0 0 0.175
0 0 0.2
0 0 0.225
0 0 0.25
0 0 0.275
0 0 0.3
0 0 0.325
0 0 0.35
0 0 0.375
0 0 0.4
0 0 0.425
0 0 0.45
0 0 0.475
0 0 0.5
0 0 0.525
0 0 0.55
0 0 0.575
0 0 0.6
0.025 0 -0.075
0.025 0 -0.05
0.025 0 -0.025
0.025 0 0
0.279299 0 1.03207
0.0523477 0 0.0160887
0.0271637 0 0.260697
0.0313194 0 0.31483
-0.540762 0 4.54463
0.0307754 0 0.0623313
0.590583 0 0.190883
1491.24 0 -1809.54
-0.939318 0 6.04775
0.177262 0 0.615542
0.38576 0 0.0682611
0.372157 0 0.445548
0.103452 0 0.444076
0.389013 0 0.319771
0.180673 0 0.0957863
-11.7512 0 1.36134
0.102684 0 0.296369
0.396816 0 0.1374
0.483481 0 0.408304
0.567483 0 0.0263874
0.05 0 -0.075
0.05 0 -0.05
0.05 0 -0.025
0.05 0 0
0.240865 0 0.431738
0.279762 0 2.80759
-26.5099 0 17.4212
0.277127 0 0.196091
0.28773 0 1.16839
0.109416 0 -3.78687
0.432038 0 0.0236128
-208.692 0 -764.922
0.241635 0 0.022696
0.0800956 0 0.237494
-1489.7 0 1808.26
0.167325 0 0.107979
0.0178549 0 0.119699
-34.6206 0 -36.3458
0.0127347 0 0.371463
0.165404 0 0.177715
-7.42312 0 -5.24034
0.611221 0 0.194925
0.231242 0 0.5113
0.0981279 0 0.0801365
0.075 0 -0.075
0.075 0 -0.05
0.075 0 -0.025
0.075 0 0
1.50335 0 0.997563
0.408277 0 0.307663
-7.12218 0 -48.3735
-4.22963 0 -10.0698
-58.1482 0 -5.18954
-24.1973 0 -0.514606
0.763235 0 0.025545
12.6498 0 4.32043
0.746414 0 0.297004
0.86719 0 0.350961
0.168081 0 0.0714297
-5.03746 0 5.51608
-0.935104 0 3.16572
1.78845 0 -9.48885
1.62366 0 2.61049
0.365934 0 0.4001
1.12166 0 2.03804
0.169766 0 0.0392758
0.163415 0 -15.5013
74.0088 0 22.0797
0.1 0 -0.075
0.1 0 -0.05
0.1 0 -0.025
0.1 0 0
5.48372 0 -15.1802
-1.00567 0 7.77549
0.696699 0 -2.72837
0.352202 0 0.42403
-80.5267 0 -53.2454
37.3982 0 -61.4692
-2.60284 0 -3.42289
0.452977 0 -3.68558
77.4783 0 13.8654
55.3988 0 -17.1141
0.69317 0 0.0250591
764001 0 -69395.3
0.888576 0 0.213248
4.87061 0 7.95931
-49.0346 0 10.7629
0.255488 0 0.24156
201.306 0 757.609
0.479274 0 0.179761
-10.8724 0 -12.7969
0.0962078 0 0.0461065
0.125 0 -0.075
0.125 0 -0.05
0.125 0 -0.025
0.125 0 0
0.50267 0 4.349
0.912505 0 -0.00950518
0.127521 0 1.27652
0.593854 0 0.63803
23.5136 0 2.05947
-22.5592 0 10.0576
1.35863 0 15.5071
0.904961 0 0.0458458
0.124863 0 2.13173
-6.18331 0 13.6176
0.0186381 0 0.13767
0.481308 0 -0.0111344
-0.016277 0 1.37616
0.930585 0 0.123746
134.225 0 -255.71
1.49827 0 -10.3918
-48.1191 0 -85.2105
-17.1669 0 -15.8399
-5.08925 0 -2.42184
0.38855 0 3.15898
0.15 0 -0.075
0.15 0 -0.05
0.15 0 -0.025
0.15 0 0
8.49066 0 -27.0958
-31.2662 0 -26.8818
0.740569 0 1.54232
-3.16538 0 14.3642
0.0503526 0 0.315703
34.4427 0 29.1785
1.7043 0 0.373771
11836.7 0 -2624.99
-0.458994 0 1.19914
-1.00352 0 2.32934
0.987479 0 0.179854
1.1581 0 -5.1403
0.900351 0 0.059414
0.0950562 0 0.0231016
0.611947 0 0.565177
-763999 0 69398.8
0.598789 0 1.5588
3.98861 0 5.17031
-68.9516 0 -20.3511
80.1326 0 50.5366
0.175 0 -0.075
0.175 0 -0.05
0.175 0 -0.025
0.175 0 0
-12.3042 0 24.2437
-8.71248 0 -6.31182
-3.67285 0 13.7808
18.4182 0 20.1294
8.87951 0 48.2037
-0.977654 0 1.04583
-12.9844 0 -25.4321
61.8146 0 -96.8973
-101.189 0 190.294
17.1054 0 0.736051
0.865136 0 0.513646
0.576133 0 0.0297036
-1.58818 0 11.4671
12.776 0 -20.8254
0.254094 0 0.72698
-1.83024 0 8.32489
-4.75985 0 -13.0489
0.681117 0 0.0410669
-0.757939 0 9.68517
0.403422 0 0.354277
0.2 0 -0.075
0.2 0 -0.05
0.2 0 -0.025
0.2 0 0
-68.1472 0 -83.0909
0.536762 0 1.06271
522.127 0 -172.084
13.2499 0 -7.0126
0.88417 0 0.0826554
0.117876 0 0.0492845
34.1084 0 37.8393
0.736012 0 1.83737
0.0848362 0 1.17149
-0.131475 0 2.31502
-7.50262 0 5.88411
52.0195 0 29.951
27.1695 0 7.47249
-1.71935 0 2.71998
0.203649 0 0.188094
-1.36586 0 1.41097
0.250017 0 0.299145
67.7314 0 23.5857
0.406083 0 2.22702
0.973747 0 0.358568
0.225 0 -0.075
0.225 0 -0.05
0.225 0 -0.025
0.225 0 0
36.4648 0 -9.58133
0.0684619 0 0.132288
13.165 0 16.0881
21.6484 0 10.539
37.4875 0 33.4342
-1.16639 0 -0.52681
-16.3002 0 -18.7759
1.22737 0 0.551512
-541.328 0 164.399
4.0245 0 -18.8509
0.377915 0 0.338386
66.5077 0 84.6957
9.02193 0 7.85542
2.11939 0 2.10455
14.496 0 29.7034
0.507719 0 4.01255
10.9872 0 -0.902991
-38.395 0 62.148
-0.333623 0 1.12718
-1.46701 0 4.06667
0.25 0 -0.075
0.25 0 -0.05
0.25 0 -0.025
0.25 0 0
5.00807 0 7.70939
-2.3173 0 9.31324
-0.0863542 0 0.740362
0.0800841 0 0.835666
-54.1054 0 -14.9437
0.363623 0 0.0550559
-0.445852 0 -0.145415
28.9578 0 20.3906
0.716824 0 1.45443
-5.16422 0 4.51358
0.965311 0 0.0672449
0.0962527 0 0.186276
-5.779 0 9.25132
0.819717 0 5.84159
-0.162794 0 0.909538
0.515007 0 0.589648
0.868981 0 0.12576
22.4256 0 -25.5198
-4.01043 0 -11.9126
-22.5061 0 25.9221
0.275 0 -0.075
0.275 0 -0.05
0.275 0 -0.025
0.275 0 0
0.3 0 -0.075
0.3 0 -0.05
0.3 0 -0.025
0.3 0 0
0.325 0 -0.075
0.325 0 -0.05
0.325 0 -0.025
0.325 0 0
0.35 0 -0.075
0.35 0 -0.05
0.35 0 -0.025
0.35 0 0
0.375 0 -0.075
0.375 0 -0.05
0.375 0 -0.025
0.375 0 0
0.4 0 -0.075
0.4 0 -0.05
0.4 0 -0.025
0.4 0 0
0.425 0 -0.075
0.425 0 -0.05
0.425 0 -0.025
0.425 0 0
0.45 0 -0.075
0.45 0 -0.05
0.45 0 -0.025
0.45 0 0
0.475 0 -0.075
0.475 0 -0.05
0.475 0 -0.025
0.475 0 0
0.5 0 -0.075
0.5 0 -0.05
0.5 0 -0.025
0.5 0 0
0.525 0 -0.075
0.525 0 -0.05
0.525 0 -0.025
0.525 0 0
0.55 0 -0.075
0.55 0 -0.05
0.55 0 -0.025
0.55 0 0
0.575 0 -0.075
0.575 0 -0.05
0.575 0 -0.025
0.575 0 0
0.6 0 -0.075
0.6 0 -0.05
0.6 0 -0.025
0.6 0 0
0.625 0 -0.075
0.625 0 -0.05
0.625 0 -0.025
0.625 0 0
0.65 0 -0.075
0.65 0 -0.05
0.65 0 -0.025
0.65 0 0
0.675 0 -0.075
0.675 0 -0.05
0.675 0 -0.025
0.675 0 0
0.7 0 -0.075
0.7 0 -0.05
0.7 0 -0.025
0.7 0 0
0.725 0 -0.075
0.725 0 -0.05
0.725 0 -0.025
0.725 0 0
0.75 0 -0.075
0.75 0 -0.05
0.75 0 -0.025
0.75 0 0
0.775 0 -0.075
0.775 0 -0.05
0.775 0 -0.025
0.775 0 0
0.8 0 -0.075
0.8 0 -0.05
0.8 0 -0.025
0.8 0 0
0.825 0 -0.075
0.825 0 -0.05
0.825 0 -0.025
0.825 0 0
0.85 0 -0.075
0.85 0 -0.05
0.85 0 -0.025
0.85 0 0
0.875 0 -0.075
0.875 0 -0.05
0.875 0 -0.025
0.875 0 0
0.9 0 -0.075
0.9 0 -0.05
0.9 0 -0.025
0.9 0 0
0.925 0 -0.075
0.925 0 -0.05
0.925 0 -0.025
0.925 0 0
0.95 0 -0.075
0.95 0 -0.05
0.95 0 -0.025
0.95 0 0
0.975 0 -0.075
0.975 0 -0.05
0.975 0 -0.025
0.975 0 0
1 0 -0.075
1 0 -0.05
1 0 -0.025
1 0 0
1.025 0 -0.075
1.025 0 -0.05
1.025 0 -0.025
1.025 0 0
1.025 0 0.025
1.025 0 0.05
1.025 0 0.075
1.025 0 0.1
1.025 0 0.125
1.025 0 0.15
1.025 0 0.175
1.025 0 0.2
1.025 0 0.225
1.025 0 0.25
1.025 0 0.275
1.025 0 0.3
1.025 0 0.325
1.025 0 0.35
1.025 0 0.375
1.025 0 0.4
1.025 0 0.425
1.025 0 0.45
1.025 0 0.475
1.025 0 0.5
1.025 0 0.525
1.025 0 0.55
1.025 0 0.575
1.025 0 0.6
1.05 0 -0.075
1.05 0 -0.05
1.05 0 -0.025
1.05 0 0
1.05 0 0.025
1.05 0 0.05
1.05 0 0.075
1.05 0 0.1
1.05 0 0.125
1.05 0 0.15
1.05 0 0.175
1.05 0 0.2
1.05 0 0.225
1.05 0 0.25
1.05 0 0.275
1.05 0 0.3
1.05 0 0.325
1.05 0 0.35
1.05 0 0.375
1.05 0 0.4
1.05 0 0.425
1.05 0 0.45
1.05 0 0.475
1.05 0 0.5
1.05 0 0.525
1.05 0 0.55
1.05 0 0.575
1.05 0 0.6
1.075 0 -0.075
1.075 0 -0.05
1.075 0 -0.025
1.075 0 0
1.075 0 0.025
1.075 0 0.05
1.075 0 0.075
1.075 0 0.1
1.075 0 0.125
1.075 0 0.15
1.075 0 0.175
1.075 0 0.2
1.075 0 0.225
1.075 0 0.25
1.075 0 0.275
1.075 0 0.3
1.075 0 0.325
1.075 0 0.35
1.075 0 0.375
1.075 0 0.4
1.075 0 0.425
1.075 0 0.45
1.075 0 0.475
1.075 0 0.5
1.075 0 0.525
1.075 0 0.55
1.075 0 0.575
1.075 0 0.6
1.1 0 -0.075
1.1 0 -0.05
1.1 0 -0.025
1.1 0 0
1.1 0 0.025
1.1 0 0.05
1.1 0 0.075
1.1 0 0.1
1.1 0 0.125
1.1 0 0.15
1.1 0 0.175
1.1 0 0.2
1.1 0 0.225
1.1 0 0.25
1.1 0 0.275
1.1 0 0.3
1.1 0 0.325
1.1 0 0.35
1.1 0 0.375
1.1 0 0.4
1.1 0 0.425
1.1 0 0.45
1.1 0 0.475
1.1 0 0.5
1.1 0 0.525
1.1 0 0.55
1.1 0 0.575
1.1 0 0.6
</DataArray>
</Points>
<PointData>
<DataArray NumberOfComponents='1' type='Int32' Name='ParticleType' format='ascii'>
2
2
2
2
2
2
2
2
2
2
2
2
2
2
2
2
2
2
2
2
2
2
2
2
2
2
1
1
2
2
2
2
2
2
2
2
2
2
2
2
2
2
2
2
2
2
2
2
2
2
2
2
2
2
1
1
2
2
1
1
1
1
1
1
1
1
1
1
1
1
1
1
1
1
1
1
1
1
1
1
1
1
1
1
2
2
1
1
1
1
1
1
1
1
1
1
1
1
1
1
1
1
1
1
1
1
1
1
1
1
1
1
2
2
1
1
0
0
0
0
0
0
0
0
0
0
0
0
0
0
0
0
0
0
0
0
2
2
1
1
0
0
0
0
0
0
0
0
0
0
0
0
0
0
0
0
0
0
0
0
2
2
1
1
0
0
0
0
0
0
0
0
0
0
0
0
0
0
0
0
0
0
0
0
2
2
1
1
0
0
0
0
0
0
0
0
0
0
0
0
0
0
0
0
0
0
0
0
2
2
1
1
0
0
0
0
0
0
0
0
0
0
0
0
0
0
0
0
0
0
0
0
2
2
1
1
0
0
0
0
0
0
0
0
0
0
0
0
0
0
0
0
0
0
0
0
2
2
1
1
0
0
0
0
0
0
0
0
0
0
0
0
0
0
0
0
0
0
0
0
2
2
1
1
0
0
0
0
0
0
0
0
0
0
0
0
0
0
0
0
0
0
0
0
2
2
1
1
0
0
0
0
0
0
0
0
0
0
0
0
0
0
0
0
0
0
0
0
2
2
1
1
0
0
0
0
0
0
0
0
0
0
0
0
0
0
0
0
0
0
0
0
2
2
1
1
2
2
1
1
2
2
1
1
2
2
1
1
2
2
1
1
2
2
1
1
2
2
1
1
2
2
1
1
2
2
1
1
2
2
1
1
2
2
1
1
2
2
1
1
2
2
1
1
2
2
1
1
2
2
1
1
2
2
1
1
2
2
1
1
2
2
1
1
2
2
1
1
2
2
1
1
2
2
1
1
2
2
1
1
2
2
1
1
2
2
1
1
2
2
1
1
2
2
1
1
2
2
1
1
2
2
1
1
2
2
1
1
2
2
1
1
2
2
1
1
1
1
1
1
1
1
1
1
1
1
1
1
1
1
1
1
1
1
1
1
1
1
1
1
2
2
1
1
1
1
1
1
1
1
1
1
1
1
1
1
1
1
1
1
1
1
1
1
1
1
1
1
2
2
2
2
2
2
2
2
2
2
2
2
2
2
2
2
2
2
2
2
2
2
2
2
2
2
1
1
2
2
2
2
2
2
2
2
2
2
2
2
2
2
2
2
2
2
2
2
2
2
2
2
2
2
1
1
</DataArray>
<DataArray NumberOfComponents='1' type='Float32' Name='Velocity' format='ascii'>
0
0
0
0
0
0
0
0
0
0
0
0
0
0
0
0
0
0
0
0
0
0
0
0
0
0
0
0
0
0
0
0
0
0
0
0
0
0
0
0
0
0
0
0
0
0
0
0
0
0
0
0
0
0
0
0
0
0
0
0
0
0
0
0
0
0
0
0
0
0
0
0
0
0
0
0
0
0
0
0
0
0
0
0
0
0
0
0
0
0
0
0
0
0
0
0
0
0
0
0
0
0
0
0
0
0
0
0
0
0
0
0
0
0
0
0
4.86687
1.01793
0.264139
0.260612
13.9671
1.43339
1.73063
7976.48
278.992
1.26746
0.516883
3.32832
1.4991
13.4622
0.944764
101.42
1.06879
1.81173
2.75909
0.801984
0
0
0
0
0.0379178
10.617
100.34
2.54894
4.17605
14.7133
2.2281
3028.3
0.388658
11.1213
7968.01
0.910074
0.380039
444.027
0.466379
0.866592
31.5164
1.38064
0.940577
0.521787
0
0
0
0
78.9068
6.62645
1486.1
37.0391
191.285
79.539
1.58372
109.07
0.895813
1.63282
1.40302
23.6498
9.57239
53.3248
7.71692
1.36452
5.30361
0.995066
71.4419
1321.3
0
0
0
0
65.2413
24.4264
11.8904
4.14459
379.858
258.205
249.105
15.667
246.622
184.277
1.35151
3.50295e+06
1.31752
43.6059
163.877
2.60281
2989.8
1.67212
56.5414
1.6883
0
0
0
0
38.7237
0.0252944
5.46729
1.77209
74.8364
82.9209
68.314
0.459912
7.57427
46.5015
1.27339
11.6739
3.28814
1.13552
923.215
35.387
478.885
136.666
98.7238
8.18282
0
0
0
0
91.5784
143.123
3.64004
58.8634
3.45281
149.634
78.4503
52482.2
4.37183
9.66044
0.265025
52.266
5.86083
1.24259
3.38049
3.50294e+06
4.05636
20.8029
1251.08
367.28
0
0
0
0
86.0615
70.8173
43.0856
87.3633
1480.36
5.9046
93.8501
543.836
688.047
49.554
0.609601
1.11686
34.0841
77.2595
2.5337
40.1798
46.891
0.138704
30.7857
2.18211
0
0
0
0
349.908
1.87059
1727.48
47.2779
1.92768
0.678595
443.042
3.62844
1.72499
7.00819
32.7809
188.887
84.4384
10.5519
19.1453
6.95999
1.234
229.231
7.07953
0.640821
0
0
0
0
122.394
3.5428
115.713
76.3226
96.6672
5.68833
80.8055
1.67071
1780.23
60.3738
2.46911
344.108
34.5656
6.12858
102.963
11.2129
32.7933
261.547
3.50627
13.5278
0
0
0
0
31.777
49.7914
3.48623
2.42777
114.278
0.995975
5.33174
109.394
5.88207
21.5205
1.23709
3.13029
34.3475
19.6133
3.15712
4.16576
0.458601
104.12
45.0705
105.535
0
0
0
0
0
0
0
0
0
0
0
0
0
0
0
0
0
0
0
0
0
0
0
0
0
0
0
0
0
0
0
0
0
0
0
0
0
0
0
0
0
0
0
0
0
0
0
0
0
0
0
0
0
0
0
0
0
0
0
0
0
0
0
0
0
0
0
0
0
0
0
0
0
0
0
0
0
0
0
0
0
0
0
0
0
0
0
0
0
0
0
0
0
0
0
0
0
0
0
0
0
0
0
0
0
0
0
0
0
0
0
0
0
0
0
0
0
0
0
0
0
0
0
0
0
0
0
0
0
0
0
0
0
0
0
0
0
0
0
0
0
0
0
0
0
0
0
0
0
0
0
0
0
0
0
0
0
0
0
0
0
0
0
0
0
0
0
0
0
0
0
0
0
0
0
0
0
0
0
0
0
0
0
0
0
0
0
0
0
0
0
0
0
0
0
0
0
0
0
0
0
0
0
0
0
0
0
0
0
0
0
0
0
0
0
0
0
0
0
0
0
0
0
0
0
0
0
0
0
0
0
0
</DataArray>
<DataArray NumberOfComponents='1' type='Float32' Name='pressure' format='ascii'>
0
0
0
0
0
0
0
0
0
0
0
0
0
0
0
0
0
0
0
0
0
0
0
0
0
0
0
0
0
0
0
0
0
0
0
0
0
0
0
0
0
0
0
0
0
0
0
0
0
0
0
0
0
0
0
0
0
0
115.676
2.43017
0
0
300.643
1764.31
3672.01
2038.55
335.121
0
0
0
0
0
406.208
2426.54
3899.69
1820.27
286.626
0
0
0
0
0
0
0
0
0
287.785
0
0
0
0
0
5539.3
0
0
0
0
0
0
0
0
0
5037.45
0
0
0
0
0
0
0
0
0
0
0
674.262
0
0
0
0
0
0
0
0
0
0
0
0
0
0
0
0
0
0
0
0
300.663
0
0
2011.95
1125.87
0
0
0
0
0
0
0
0
0
0
0
0
0
0
0
0
0
0
0
0
0
0
1066.7
0
0
0
0
0
0
0
0
0
0
0
0
0
0
0
0
0
0
0
0
0
0
0
478.977
0
0
0
0
0
0
0
0
0
0
0
0
0
0
0
0
0
0
0
0
0
0
0
0
0
0
31229.8
0
0
0
0
0
0
0
0
0
32198.4
0
0
0
0
0
0
0
0
0
0
0
0
0
0
0
0
0
0
0
0
0
0
0
0
0
0
0
0
0
0
0
0
0
0
0
0
0
0
0
0
0
0
0
0
0
0
0
0
0
0
0
0
0
0
0
0
0
0
0
0
0
0
0
0
0
0
0
0
0
0
0
0
0
0
0
0
0
0
0
0
0
0
0
0
0
0
0
0
0
0
0
0
0
0
0
0
0
0
0
0
0
0
0
0
0
0
41.7552
0
0
0
0
0
0
0
0
0
0
0
0
0
0
0
0
0
0
0
0
0
0
0
0
0
0
0
0
0
0
0
0
0
0
0
0
0
0
0
330.324
0
0
0
1919.65
0
0
0
6793.1
0
0
0
16460.7
0
0
0
31012.7
22963.2
0
0
21792.1
0
0
0
9150.35
0
0
0
2873.23
0
0
0
723.565
0
0
0
0
0
0
0
0
0
0
0
0
0
0
0
0
0
0
0
0
0
0
0
0
0
0
0
0
0
0
0
0
0
0
0
202.99
0
0
0
1578.35
0
0
0
5506.24
0
0
0
14245.3
0
0
0
27632.3
19762.2
0
0
27696.6
19640.6
0
0
14259.1
0
0
0
5499.27
0
0
0
1641.63
0
0
0
717.003
0
0
0
0
0
0
0
0
0
0
0
0
0
0
0
0
0
0
0
0
0
0
0
0
0
0
0
345.194
91.3562
0
0
0
0
0
0
0
0
0
0
0
0
0
0
0
0
0
0
0
0
0
0
0
0
0
0
0
0
0
0
0
0
0
0
0
0
0
0
0
0
0
0
0
0
0
0
0
0
0
0
0
0
0
0
0
0
0
0
0
0
0
0
0
0
0
0
0
0
0
0
0
0
0
0
0
0
0
0
0
0
</DataArray>
</PointData>
<Cells>
<DataArray type='Int32' Name='connectivity' format='ascii'>
0
1
2
3
4
5
6
7
8
9
10
11
12
13
14
15
16
17
18
19
20
21
22
23
24
25
26
27
28
29
30
31
32
33
34
35
36
37
38
39
40
41
42
43
44
45
46
47
48
49
50
51
52
53
54
55
56
57
58
59
60
61
62
63
64
65
66
67
68
69
70
71
72
73
74
75
76
77
78
79
80
81
82
83
84
85
86
87
88
89
90
91
92
93
94
95
96
97
98
99
100
101
102
103
104
105
106
107
108
109
110
111
112
113
114
115
116
117
118
119
120
121
122
123
124
125
126
127
128
129
130
131
132
133
134
135
136
137
138
139
140
141
142
143
144
145
146
147
148
149
150
151
152
153
154
155
156
157
158
159
160
161
162
163
164
165
166
167
168
169
170
171
172
173
174
175
176
177
178
179
180
181
182
183
184
185
186
187
188
189
190
191
192
193
194
195
196
197
198
199
200
201
202
203
204
205
206
207
208
209
210
211
212
213
214
215
216
217
218
219
220
221
222
223
224
225
226
227
228
229
230
231
232
233
234
235
236
237
238
239
240
241
242
243
244
245
246
247
248
249
250
251
252
253
254
255
256
257
258
259
260
261
262
263
264
265
266
267
268
269
270
271
272
273
274
275
276
277
278
279
280
281
282
283
284
285
286
287
288
289
290
291
292
293
294
295
296
297
298
299
300
301
302
303
304
305
306
307
308
309
310
311
312
313
314
315
316
317
318
319
320
321
322
323
324
325
326
327
328
329
330
331
332
333
334
335
336
337
338
339
340
341
342
343
344
345
346
347
348
349
350
351
352
353
354
355
356
357
358
359
360
361
362
363
364
365
366
367
368
369
370
371
372
373
374
375
376
377
378
379
380
381
382
383
384
385
386
387
388
389
390
391
392
393
394
395
396
397
398
399
400
401
402
403
404
405
406
407
408
409
410
411
412
413
414
415
416
417
418
419
420
421
422
423
424
425
426
427
428
429
430
431
432
433
434
435
436
437
438
439
440
441
442
443
444
445
446
447
448
449
450
451
452
453
454
455
456
457
458
459
460
461
462
463
464
465
466
467
468
469
470
471
472
473
474
475
476
477
478
479
480
481
482
483
484
485
486
487
488
489
490
491
492
493
494
495
496
497
498
499
500
501
502
503
504
505
506
507
508
509
510
511
512
513
514
515
516
517
518
519
520
521
522
523
524
525
526
527
528
529
530
531
532
533
534
535
536
537
538
539
540
541
542
543
544
545
546
547
548
549
550
551
552
553
554
555
556
557
558
559
560
561
562
563
564
565
566
567
568
569
570
571
572
573
574
575
576
577
578
579
580
581
582
583
</DataArray>
<DataArray type='Int32' Name='offsets' format='ascii'>
1
2
3
4
5
6
7
8
9
10
11
12
13
14
15
16
17
18
19
20
21
22
23
24
25
26
27
28
29
30
31
32
33
34
35
36
37
38
39
40
41
42
43
44
45
46
47
48
49
50
51
52
53
54
55
56
57
58
59
60
61
62
63
64
65
66
67
68
69
70
71
72
73
74
75
76
77
78
79
80
81
82
83
84
85
86
87
88
89
90
91
92
93
94
95
96
97
98
99
100
101
102
103
104
105
106
107
108
109
110
111
112
113
114
115
116
117
118
119
120
121
122
123
124
125
126
127
128
129
130
131
132
133
134
135
136
137
138
139
140
141
142
143
144
145
146
147
148
149
150
151
152
153
154
155
156
157
158
159
160
161
162
163
164
165
166
167
168
169
170
171
172
173
174
175
176
177
178
179
180
181
182
183
184
185
186
187
188
189
190
191
192
193
194
195
196
197
198
199
200
201
202
203
204
205
206
207
208
209
210
211
212
213
214
215
216
217
218
219
220
221
222
223
224
225
226
227
228
229
230
231
232
233
234
235
236
237
238
239
240
241
242
243
244
245
246
247
248
249
250
251
252
253
254
255
256
257
258
259
260
261
262
263
264
265
266
267
268
269
270
271
272
273
274
275
276
277
278
279
280
281
282
283
284
285
286
287
288
289
290
291
292
293
294
295
296
297
298
299
300
301
302
303
304
305
306
307
308
309
310
311
312
313
314
315
316
317
318
319
320
321
322
323
324
325
326
327
328
329
330
331
332
333
334
335
336
337
338
339
340
341
342
343
344
345
346
347
348
349
350
351
352
353
354
355
356
357
358
359
360
361
362
363
364
365
366
367
368
369
370
371
372
373
374
375
376
377
378
379
380
381
382
383
384
385
386
387
388
389
390
391
392
393
394
395
396
397
398
399
400
401
402
403
404
405
406
407
408
409
410
411
412
413
414
415
416
417
418
419
420
421
422
423
424
425
426
427
428
429
430
431
432
433
434
435
436
437
438
439
440
441
442
443
444
445
446
447
448
449
450
451
452
453
454
455
456
457
458
459
460
461
462
463
464
465
466
467
468
469
470
471
472
473
474
475
476
477
478
479
480
481
482
483
484
485
486
487
488
489
490
491
492
493
494
495
496
497
498
499
500
501
502
503
504
505
506
507
508
509
510
511
512
513
514
515
516
517
518
519
520
521
522
523
524
525
526
527
528
529
530
531
532
533
534
535
536
537
538
539
540
541
542
543
544
545
546
547
548
549
550
551
552
553
554
555
556
557
558
559
560
561
562
563
564
565
566
567
568
569
570
571
572
573
574
575
576
577
578
579
580
581
582
583
584
</DataArray>
<DataArray type='UInt8' Name='types' format='ascii'>
1
1
1
1
1
1
1
1
1
1
1
1
1
1
1
1
1
1
1
1
1
1
1
1
1
1
1
1
1
1
1
1
1
1
1
1
1
1
1
1
1
1
1
1
1
1
1
1
1
1
1
1
1
1
1
1
1
1
1
1
1
1
1
1
1
1
1
1
1
1
1
1
1
1
1
1
1
1
1
1
1
1
1
1
1
1
1
1
1
1
1
1
1
1
1
1
1
1
1
1
1
1
1
1
1
1
1
1
1
1
1
1
1
1
1
1
1
1
1
1
1
1
1
1
1
1
1
1
1
1
1
1
1
1
1
1
1
1
1
1
1
1
1
1
1
1
1
1
1
1
1
1
1
1
1
1
1
1
1
1
1
1
1
1
1
1
1
1
1
1
1
1
1
1
1
1
1
1
1
1
1
1
1
1
1
1
1
1
1
1
1
1
1
1
1
1
1
1
1
1
1
1
1
1
1
1
1
1
1
1
1
1
1
1
1
1
1
1
1
1
1
1
1
1
1
1
1
1
1
1
1
1
1
1
1
1
1
1
1
1
1
1
1
1
1
1
1
1
1
1
1
1
1
1
1
1
1
1
1
1
1
1
1
1
1
1
1
1
1
1
1
1
1
1
1
1
1
1
1
1
1
1
1
1
1
1
1
1
1
1
1
1
1
1
1
1
1
1
1
1
1
1
1
1
1
1
1
1
1
1
1
1
1
1
1
1
1
1
1
1
1
1
1
1
1
1
1
1
1
1
1
1
1
1
1
1
1
1
1
1
1
1
1
1
1
1
1
1
1
1
1
1
1
1
1
1
1
1
1
1
1
1
1
1
1
1
1
1
1
1
1
1
1
1
1
1
1
1
1
1
1
1
1
1
1
1
1
1
1
1
1
1
1
1
1
1
1
1
1
1
1
1
1
1
1
1
1
1
1
1
1
1
1
1
1
1
1
1
1
1
1
1
1
1
1
1
1
1
1
1
1
1
1
1
1
1
1
1
1
1
1
1
1
1
1
1
1
1
1
1
1
1
1
1
1
1
1
1
1
1
1
1
1
1
1
1
1
1
1
1
1
1
1
1
1
1
1
1
1
1
1
1
1
1
1
1
1
1
1
1
1
1
1
1
1
1
1
1
1
1
1
1
1
1
1
1
1
1
1
1
1
1
1
1
1
1
1
1
1
1
1
1
1
1
1
1
1
1
1
1
1
1
1
1
1
1
1
1
1
1
1
1
1
1
1
1
1
1
1
1
1
1
1
1
1
1
1
1
1
1
1
1
1
1
1
1
1
1
1
1
1
1
1
1
1
1
1
1
1
1
1
1
1
1
</DataArray>
</Cells>
</Piece>
</UnstructuredGrid>
</VTKFile>
