<?xml version='1.0' encoding='UTF-8'?>
<VTKFile xmlns='VTK' byte_order='LittleEndian' version='0.1' type='UnstructuredGrid'>
<UnstructuredGrid>
<Piece NumberOfCells='584' NumberOfPoints='584'>
<Points>
<DataArray NumberOfComponents='3' type='Float32' Name='Position' format='ascii'>
-0.075 0 -0.075
-0.075 0 -0.05
-0.075 0 -0.025
-0.075 0 0
-0.075 0 0.025
-0.075 0 0.05
-0.075 0 0.075
-0.075 0 0.1
-0.075 0 0.125
-0.075 0 0.15
-0.075 0 0.175
-0.075 0 0.2
-0.075 0 0.225
-0.075 0 0.25
-0.075 0 0.275
-0.075 0 0.3
-0.075 0 0.325
-0.075 0 0.35
-0.075 0 0.375
-0.075 0 0.4
-0.075 0 0.425
-0.075 0 0.45
-0.075 0 0.475
-0.075 0 0.5
-0.075 0 0.525
-0.075 0 0.55
-0.075 0 0.575
-0.075 0 0.6
-0.05 0 -0.075
-0.05 0 -0.05
-0.05 0 -0.025
-0.05 0 0
-0.05 0 0.025
-0.05 0 0.05
-0.05 0 0.075
-0.05 0 0.1
-0.05 0 0.125
-0.05 0 0.15
-0.05 0 0.175
-0.05 0 0.2
-0.05 0 0.225
-0.05 0 0.25
-0.05 0 0.275
-0.05 0 0.3
-0.05 0 0.325
-0.05 0 0.35
-0.05 0 0.375
-0.05 0 0.4
-0.05 0 0.425
-0.05 0 0.45
-0.05 0 0.475
-0.05 0 0.5
-0.05 0 0.525
-0.05 0 0.55
-0.05 0 0.575
-0.05 0 0.6
-0.025 0 -0.075
-0.025 0 -0.05
-0.025 0 -0.025
-0.025 0 0
-0.025 0 0.025
-0.025 0 0.05
-0.025 0 0.075
-0.025 0 0.1
-0.025 0 0.125
-0.025 0 0.15
-0.025 0 0.175
-0.025 0 0.2
-0.025 0 0.225
-0.025 0 0.25
-0.025 0 0.275
-0.025 0 0.3
-0.025 0 0.325
-0.025 0 0.35
-0.025 0 0.375
-0.025 0 0.4
-0.025 0 0.425
-0.025 0 0.45
-0.025 0 0.475
-0.025 0 0.5
-0.025 0 0.525
-0.025 0 0.55
-0.025 0 0.575
-0.025 0 0.6
0 0 -0.075
0 0 -0.05
0 0 -0.025
0 0 0
0 0 0.025
0 0 0.05
0 0 0.075
0 0 0.1
0 0 0.125
0 0 0.15
0 0 0.175
0 0 0.2
0 0 0.225
0 0 0.25
0 0 0.275
0 0 0.3
0 0 0.325
0 0 0.35
0 0 0.375
0 0 0.4
0 0 0.425
0 0 0.45
0 0 0.475
0 0 0.5
0 0 0.525
0 0 0.55
0 0 0.575
0 0 0.6
0.025 0 -0.075
0.025 0 -0.05
0.025 0 -0.025
0.025 0 0
0.525444 0 1.94077
0.30874 0 0.0954012
-7.47419 0 -0.78899
0.135702 0 0.0183588
-1.30471 0 7.76228
0.0614959 0 0.0718899
0.62076 0 0.562114
2809.76 0 -3410.66
-14.4385 0 76.986
0.46816 0 0.437833
0.355695 0 0.0410716
0.639664 0 2.99295
0.372945 0 0.393154
785.738 0 778.989
0.323233 0 0.108013
-37.9955 0 3.5924
0.206873 0 0.017524
0.633575 0 0.0968689
0.948371 0 0.103925
0.669157 0 0.0115597
0.05 0 -0.075
0.05 0 -0.05
0.05 0 -0.025
0.05 0 0
0.23107 0 0.0981096
0.34179 0 5.23479
-48.6338 0 30.9139
-24.7968 0 4.51164
0.568265 0 1.88479
-0.100884 0 -7.93905
0.87497 0 0.0620148
-416.225 0 -1524.77
0.496947 0 0.0583448
0.93908 0 0.726427
-2807.38 0 3406.55
0.363671 0 0.0127833
0.0186828 0 0.0293246
-113.758 0 -120.734
0.133307 0 0.0314975
0.396204 0 0.0246768
-14.017 0 -10.4377
-3.27124 0 -2.43802
0.257151 0 0.42196
0.192142 0 0.0561862
0.075 0 -0.075
0.075 0 -0.05
0.075 0 -0.025
0.075 0 0
17.925 0 12.9625
0.820501 0 1.64796
-68.9867 0 -430.107
-8.13026 0 -19.2072
-107.642 0 -10.4102
-44.8604 0 -1.68615
9.07586 0 10.919
39.328 0 13.6036
5.19289 0 2.64566
0.715534 0 0.0347118
0.181935 0 0.0176301
-9.65715 0 9.24165
-2.13663 0 5.01278
3.74127 0 -23.5476
2.57043 0 4.04695
0.658114 0 0.26882
1.60272 0 2.99783
0.213109 0 0.0551122
-0.42787 0 -34.3993
403.217 0 119.933
0.1 0 -0.075
0.1 0 -0.05
0.1 0 -0.025
0.1 0 0
10.2207 0 -31.8006
-2.57031 0 13.5981
0.706232 0 -6.15236
0.137256 0 0.166779
-162.92 0 -108.034
71.6136 0 -119.561
-43.5239 0 -53.9577
0.392622 0 -8.09105
140.647 0 24.548
100.972 0 -32.2326
-25.2675 0 -2.62832
1.67103e+06 0 -151783
1.58748 0 -3.31225
10.909 0 17.2225
-90.7792 0 18.9642
0.248992 0 0.0443006
400.615 0 1508.64
0.0948555 0 0.116178
-20.4712 0 -24.2638
0.319002 0 0.091782
0.125 0 -0.075
0.125 0 -0.05
0.125 0 -0.025
0.125 0 0
-0.585241 0 14.0257
0.91419 0 -0.0109889
-0.788211 0 2.03124
0.142249 0 0.396781
42.9243 0 3.07497
-42.5426 0 17.8165
2.16408 0 32.918
0.89971 0 0.0807334
-0.6117 0 3.6256
-11.9209 0 23.9274
6.83058 0 1.93556
0.860782 0 -0.0109624
-0.524014 0 1.73146
0.994954 0 0.104965
245.028 0 -468.975
2.0388 0 -19.9091
-109.402 0 -193.928
-43.504 0 -40.0254
-28.2796 0 -13.7572
0.192152 0 4.94492
0.15 0 -0.075
0.15 0 -0.05
0.15 0 -0.025
0.15 0 0
14.8641 0 -50.3698
-59.6149 0 -51.3199
0.578173 0 2.14218
-7.48605 0 28.7136
0.765502 0 1.24972
63.9989 0 54.1447
20.9709 0 6.73736
25158.3 0 -5580.26
-1.47174 0 1.38274
-2.87495 0 3.67207
0.759777 0 10.2354
1.70332 0 -19.051
0.658719 0 0.362806
0.014513 0 0.0967057
0.760318 0 0.487916
-1.67103e+06 0 151789
0.142551 0 2.17715
7.14915 0 9.22707
-380.916 0 -112.803
160.906 0 101.141
0.175 0 -0.075
0.175 0 -0.05
0.175 0 -0.025
0.175 0 0
-23.1374 0 43.49
-24.0199 0 -16.8767
-7.50773 0 23.9737
33.4969 0 36.7845
73.0106 0 427.383
-2.49347 0 0.956508
-24.2487 0 -47.4101
136.738 0 -217.145
-185.939 0 347.505
29.9893 0 0.457618
-0.853277 0 7.45218
0.612462 0 0.0110885
-3.62889 0 19.7583
22.557 0 -38.7033
-0.37014 0 0.604944
-4.40664 0 18.1164
-9.26895 0 -24.7086
0.762334 0 0.138773
-2.1987 0 17.2262
-783.759 0 -777.427
0.2 0 -0.075
0.2 0 -0.05
0.2 0 -0.025
0.2 0 0
-125.888 0 -153.727
0.250751 0 1.12356
948.511 0 -313.582
23.7015 0 -13.8154
0.392361 0 0.573816
0.0456572 0 0.314113
111.718 0 122.629
0.681575 0 2.44668
-0.290267 0 1.08484
-1.12896 0 3.50736
-14.7297 0 10.0695
94.64 0 54.0181
48.4188 0 12.6578
-3.86994 0 4.0909
-11.1354 0 -1.91083
-3.05511 0 1.72736
0.438615 0 0.226179
124.128 0 42.531
0.204023 0 3.72406
0.931226 0 0.187156
0.225 0 -0.075
0.225 0 -0.05
0.225 0 -0.025
0.225 0 0
67.0827 0 -18.5866
0.155393 0 0.0344272
31.8492 0 39.3359
39.5696 0 18.7277
56.4431 0 49.6055
-1.76804 0 -2.21038
-30.1251 0 -34.9283
1.4168 0 -0.17191
-984.378 0 298.032
6.46458 0 -34.6898
0.0172913 0 0.0492001
121.708 0 154.772
15.7889 0 13.4369
3.22105 0 2.92329
26.0602 0 53.5145
0.301753 0 6.58811
19.4182 0 -2.50688
-74.8036 0 119.25
-1.15351 0 1.19324
-3.39839 0 6.67366
0.25 0 -0.075
0.25 0 -0.05
0.25 0 -0.025
0.25 0 0
9.36901 0 14.3942
-6.05014 0 21.3767
-0.992672 0 0.394153
0.159533 0 1.12935
-82.5552 0 -23.8451
0.573718 0 0.027199
-0.840104 0 -1.80694
52.2442 0 36.3897
0.536044 0 2.64053
-9.92145 0 7.12666
1.9013 0 -9.36409
0.827014 0 0.212016
-10.9958 0 16.167
1.06495 0 10.6026
-0.927049 0 0.876543
-0.538364 0 0.509034
2.33677 0 -7.14743
39.5525 0 -46.8171
-8.06433 0 -23.2399
-41.2109 0 45.6651
0.275 0 -0.075
0.275 0 -0.05
0.275 0 -0.025
0.275 0 0
0.3 0 -0.075
0.3 0 -0.05
0.3 0 -0.025
0.3 0 0
0.325 0 -0.075
0.325 0 -0.05
0.325 0 -0.025
0.325 0 0
0.35 0 -0.075
0.35 0 -0.05
0.35 0 -0.025
0.35 0 0
0.375 0 -0.075
0.375 0 -0.05
0.375 0 -0.025
0.375 0 0
0.4 0 -0.075
0.4 0 -0.05
0.4 0 -0.025
0.4 0 0
0.425 0 -0.075
0.425 0 -0.05
0.425 0 -0.025
0.425 0 0
0.45 0 -0.075
0.45 0 -0.05
0.45 0 -0.025
0.45 0 0
0.475 0 -0.075
0.475 0 -0.05
0.475 0 -0.025
0.475 0 0
0.5 0 -0.075
0.5 0 -0.05
0.5 0 -0.025
0.5 0 0
0.525 0 -0.075
0.525 0 -0.05
0.525 0 -0.025
0.525 0 0
0.55 0 -0.075
0.55 0 -0.05
0.55 0 -0.025
0.55 0 0
0.575 0 -0.075
0.575 0 -0.05
0.575 0 -0.025
0.575 0 0
0.6 0 -0.075
0.6 0 -0.05
0.6 0 -0.025
0.6 0 0
0.625 0 -0.075
0.625 0 -0.05
0.625 0 -0.025
0.625 0 0
0.65 0 -0.075
0.65 0 -0.05
0.65 0 -0.025
0.65 0 0
0.675 0 -0.075
0.675 0 -0.05
0.675 0 -0.025
0.675 0 0
0.7 0 -0.075
0.7 0 -0.05
0.7 0 -0.025
0.7 0 0
0.725 0 -0.075
0.725 0 -0.05
0.725 0 -0.025
0.725 0 0
0.75 0 -0.075
0.75 0 -0.05
0.75 0 -0.025
0.75 0 0
0.775 0 -0.075
0.775 0 -0.05
0.775 0 -0.025
0.775 0 0
0.8 0 -0.075
0.8 0 -0.05
0.8 0 -0.025
0.8 0 0
0.825 0 -0.075
0.825 0 -0.05
0.825 0 -0.025
0.825 0 0
0.85 0 -0.075
0.85 0 -0.05
0.85 0 -0.025
0.85 0 0
0.875 0 -0.075
0.875 0 -0.05
0.875 0 -0.025
0.875 0 0
0.9 0 -0.075
0.9 0 -0.05
0.9 0 -0.025
0.9 0 0
0.925 0 -0.075
0.925 0 -0.05
0.925 0 -0.025
0.925 0 0
0.95 0 -0.075
0.95 0 -0.05
0.95 0 -0.025
0.95 0 0
0.975 0 -0.075
0.975 0 -0.05
0.975 0 -0.025
0.975 0 0
1 0 -0.075
1 0 -0.05
1 0 -0.025
1 0 0
1.025 0 -0.075
1.025 0 -0.05
1.025 0 -0.025
1.025 0 0
1.025 0 0.025
1.025 0 0.05
1.025 0 0.075
1.025 0 0.1
1.025 0 0.125
1.025 0 0.15
1.025 0 0.175
1.025 0 0.2
1.025 0 0.225
1.025 0 0.25
1.025 0 0.275
1.025 0 0.3
1.025 0 0.325
1.025 0 0.35
1.025 0 0.375
1.025 0 0.4
1.025 0 0.425
1.025 0 0.45
1.025 0 0.475
1.025 0 0.5
1.025 0 0.525
1.025 0 0.55
1.025 0 0.575
1.025 0 0.6
1.05 0 -0.075
1.05 0 -0.05
1.05 0 -0.025
1.05 0 0
1.05 0 0.025
1.05 0 0.05
1.05 0 0.075
1.05 0 0.1
1.05 0 0.125
1.05 0 0.15
1.05 0 0.175
1.05 0 0.2
1.05 0 0.225
1.05 0 0.25
1.05 0 0.275
1.05 0 0.3
1.05 0 0.325
1.05 0 0.35
1.05 0 0.375
1.05 0 0.4
1.05 0 0.425
1.05 0 0.45
1.05 0 0.475
1.05 0 0.5
1.05 0 0.525
1.05 0 0.55
1.05 0 0.575
1.05 0 0.6
1.075 0 -0.075
1.075 0 -0.05
1.075 0 -0.025
1.075 0 0
1.075 0 0.025
1.075 0 0.05
1.075 0 0.075
1.075 0 0.1
1.075 0 0.125
1.075 0 0.15
1.075 0 0.175
1.075 0 0.2
1.075 0 0.225
1.075 0 0.25
1.075 0 0.275
1.075 0 0.3
1.075 0 0.325
1.075 0 0.35
1.075 0 0.375
1.075 0 0.4
1.075 0 0.425
1.075 0 0.45
1.075 0 0.475
1.075 0 0.5
1.075 0 0.525
1.075 0 0.55
1.075 0 0.575
1.075 0 0.6
1.1 0 -0.075
1.1 0 -0.05
1.1 0 -0.025
1.1 0 0
1.1 0 0.025
1.1 0 0.05
1.1 0 0.075
1.1 0 0.1
1.1 0 0.125
1.1 0 0.15
1.1 0 0.175
1.1 0 0.2
1.1 0 0.225
1.1 0 0.25
1.1 0 0.275
1.1 0 0.3
1.1 0 0.325
1.1 0 0.35
1.1 0 0.375
1.1 0 0.4
1.1 0 0.425
1.1 0 0.45
1.1 0 0.475
1.1 0 0.5
1.1 0 0.525
1.1 0 0.55
1.1 0 0.575
1.1 0 0.6
</DataArray>
</Points>
<PointData>
<DataArray NumberOfComponents='1' type='Int32' Name='ParticleType' format='ascii'>
2
2
2
2
2
2
2
2
2
2
2
2
2
2
2
2
2
2
2
2
2
2
2
2
2
2
1
1
2
2
2
2
2
2
2
2
2
2
2
2
2
2
2
2
2
2
2
2
2
2
2
2
2
2
1
1
2
2
1
1
1
1
1
1
1
1
1
1
1
1
1
1
1
1
1
1
1
1
1
1
1
1
1
1
2
2
1
1
1
1
1
1
1
1
1
1
1
1
1
1
1
1
1
1
1
1
1
1
1
1
1
1
2
2
1
1
0
0
0
0
0
0
0
0
0
0
0
0
0
0
0
0
0
0
0
0
2
2
1
1
0
0
0
0
0
0
0
0
0
0
0
0
0
0
0
0
0
0
0
0
2
2
1
1
0
0
0
0
0
0
0
0
0
0
0
0
0
0
0
0
0
0
0
0
2
2
1
1
0
0
0
0
0
0
0
0
0
0
0
0
0
0
0
0
0
0
0
0
2
2
1
1
0
0
0
0
0
0
0
0
0
0
0
0
0
0
0
0
0
0
0
0
2
2
1
1
0
0
0
0
0
0
0
0
0
0
0
0
0
0
0
0
0
0
0
0
2
2
1
1
0
0
0
0
0
0
0
0
0
0
0
0
0
0
0
0
0
0
0
0
2
2
1
1
0
0
0
0
0
0
0
0
0
0
0
0
0
0
0
0
0
0
0
0
2
2
1
1
0
0
0
0
0
0
0
0
0
0
0
0
0
0
0
0
0
0
0
0
2
2
1
1
0
0
0
0
0
0
0
0
0
0
0
0
0
0
0
0
0
0
0
0
2
2
1
1
2
2
1
1
2
2
1
1
2
2
1
1
2
2
1
1
2
2
1
1
2
2
1
1
2
2
1
1
2
2
1
1
2
2
1
1
2
2
1
1
2
2
1
1
2
2
1
1
2
2
1
1
2
2
1
1
2
2
1
1
2
2
1
1
2
2
1
1
2
2
1
1
2
2
1
1
2
2
1
1
2
2
1
1
2
2
1
1
2
2
1
1
2
2
1
1
2
2
1
1
2
2
1
1
2
2
1
1
2
2
1
1
2
2
1
1
2
2
1
1
1
1
1
1
1
1
1
1
1
1
1
1
1
1
1
1
1
1
1
1
1
1
1
1
2
2
1
1
1
1
1
1
1
1
1
1
1
1
1
1
1
1
1
1
1
1
1
1
1
1
1
1
2
2
2
2
2
2
2
2
2
2
2
2
2
2
2
2
2
2
2
2
2
2
2
2
2
2
1
1
2
2
2
2
2
2
2
2
2
2
2
2
2
2
2
2
2
2
2
2
2
2
2
2
2
2
1
1
</DataArray>
<DataArray NumberOfComponents='1' type='Float32' Name='Velocity' format='ascii'>
0
0
0
0
0
0
0
0
0
0
0
0
0
0
0
0
0
0
0
0
0
0
0
0
0
0
0
0
0
0
0
0
0
0
0
0
0
0
0
0
0
0
0
0
0
0
0
0
0
0
0
0
0
0
0
0
0
0
0
0
0
0
0
0
0
0
0
0
0
0
0
0
0
0
0
0
0
0
0
0
0
0
0
0
0
0
0
0
0
0
0
0
0
0
0
0
0
0
0
0
0
0
0
0
0
0
0
0
0
0
0
0
0
0
0
0
2.41885
1.30502
34.5257
0.997689
11.4886
0.0719586
3.13576
7978.45
276.489
2.2504
0.562292
39.1282
1.79456
4285.59
0.172816
101.204
0.519842
6.22648
2.22919
0.266683
0
0
0
0
2.55256
8.06981
99.0134
123.196
1.83662
17.258
4.0887
3030.76
1.09581
3.7421
7966.04
1.111
0.796354
445.885
0.763873
0.812438
33.0927
324.774
1.6158
0.0851464
0
0
0
0
77.4063
4.19689
1488.62
39.3823
191.552
79.683
101.167
108.233
333.012
0.683066
0.385042
22.0515
7.44334
55.8485
5.601
2.1
3.04818
0.329745
73.9887
1320.57
0
0
0
0
67.6917
21.9659
14.4383
0.255736
381.269
260.4
251.085
18.2147
246.197
185.079
179.262
3.50295e+06
45.8614
41.4716
163.385
2.2837
2987.34
1.17704
58.4949
1.38918
0
0
0
0
36.1917
0.0159049
3.88248
2.80061
74.7031
81.9986
65.7687
1.90115
5.29762
44.2752
31.2949
0.0567332
1.95527
0.942084
925.476
37.9309
481.105
138.39
99.8426
5.65061
0
0
0
0
94.0359
144.787
1.21149
56.4236
3.87257
147.99
77.6511
52482.8
3.93565
8.18422
55.9295
54.812
2.3147
0.802245
2.29719
3.50294e+06
2.07592
18.7943
1251.81
365.927
0
0
0
0
83.8411
72.2644
40.7009
85.4744
1477.84
6.04897
96.1176
545.998
685.805
49.6088
201.024
0.0286289
31.61
79.4948
2.96422
37.7157
49.2674
0.529005
28.2831
4281.79
0
0
0
0
351.88
1.51044
1728.28
48.6673
2.52194
1.15463
441.162
1.09464
2.15616
5.07147
31.5045
187.634
83.8343
9.18949
45.848
6.49732
1.7111
228.42
4.55553
1.93528
0
0
0
0
123.113
0.774211
113.727
75.2637
95.0135
8.08271
82.7411
4.11648
1779.5
62.8921
0.561568
342.106
32.9448
4.63548
100.671
8.67318
33.2688
259.399
3.31273
11.4839
0
0
0
0
29.6434
47.3573
4.34909
0.335924
115.038
1.80142
7.80822
107.951
3.36542
20.2951
54.3841
3.04444
32.3138
17.0686
3.2541
4.34824
202.615
106.106
47.4693
103.685
0
0
0
0
0
0
0
0
0
0
0
0
0
0
0
0
0
0
0
0
0
0
0
0
0
0
0
0
0
0
0
0
0
0
0
0
0
0
0
0
0
0
0
0
0
0
0
0
0
0
0
0
0
0
0
0
0
0
0
0
0
0
0
0
0
0
0
0
0
0
0
0
0
0
0
0
0
0
0
0
0
0
0
0
0
0
0
0
0
0
0
0
0
0
0
0
0
0
0
0
0
0
0
0
0
0
0
0
0
0
0
0
0
0
0
0
0
0
0
0
0
0
0
0
0
0
0
0
0
0
0
0
0
0
0
0
0
0
0
0
0
0
0
0
0
0
0
0
0
0
0
0
0
0
0
0
0
0
0
0
0
0
0
0
0
0
0
0
0
0
0
0
0
0
0
0
0
0
0
0
0
0
0
0
0
0
0
0
0
0
0
0
0
0
0
0
0
0
0
0
0
0
0
0
0
0
0
0
0
0
0
0
0
0
0
0
0
0
0
0
0
0
0
0
0
0
0
0
0
0
0
0
</DataArray>
<DataArray NumberOfComponents='1' type='Float32' Name='pressure' format='ascii'>
0
0
0
0
0
0
0
0
0
0
0
0
0
0
0
0
0
0
0
0
0
0
0
0
0
0
0
0
0
0
0
0
0
0
0
0
0
0
0
0
0
0
0
0
0
0
0
0
0
0
0
0
0
0
0
0
0
0
2929.07
3528.38
5300.88
5557.64
4222.86
3907.49
1530.19
167.673
0
0
0
0
0
0
0
0
0
0
0
0
0
0
0
0
0
0
0
0
2259.25
2887.99
6477.44
6397.1
0
3372.62
0
0
0
0
0
0
0
0
0
0
0
0
0
0
0
0
0
0
0
0
0
0
1066
0
0
0
0
15393.8
0
0
0
0
0
0
0
0
0
0
0
0
0
0
0
0
0
0
558.295
0
0
0
0
0
0
0
0
0
0
0
0
2268.82
0
0
10358.8
0
0
0
0
0
0
0
1193.4
0
0
0
0
0
0
0
0
0
0
0
0
0
0
0
0
0
0
0
0
0
0
0
3439.56
0
0
0
0
0
0
0
0
0
0
0
0
0
0
0
0
0
0
0
0
0
0
0
6847.69
7624.47
0
63428.5
0
0
0
0
0
0
0
0
0
63029.6
0
0
0
0
0
0
0
0
0
0
7748.94
9672.57
0
0
0
0
0
0
0
0
0
0
0
0
0
0
0
0
0
0
0
0
0
0
7415.08
8026.4
0
0
0
0
0
0
0
0
0
0
0
0
0
0
0
0
0
0
0
0
0
0
6364.46
6473.87
0
0
0
0
0
0
0
0
0
0
0
0
0
0
0
0
0
0
0
0
0
0
3175.52
0
0
0
0
0
0
0
0
0
0
0
0
0
0
0
0
0
0
0
0
0
0
0
860.387
0
0
0
0
0
0
0
0
0
0
0
0
0
0
0
0
0
0
0
0
0
0
0
108.896
0
0
0
228.641
0
0
0
1120.36
0
0
0
3779.99
2022.78
0
0
4130.39
5313.33
0
0
1730.64
0
0
0
311.097
0
0
0
0
0
0
0
0
0
0
0
0
0
0
0
0
0
0
0
160.843
0
0
0
1298.55
0
0
0
4361.36
3691.78
0
0
4988.47
3089.86
0
0
4538.47
0
0
0
5018.65
5795.63
0
0
2353.76
0
0
0
1107.33
0
0
0
1550.52
0
0
0
4210.42
0
0
0
12472.9
0
0
0
30074.9
0
0
0
56454
46525.3
0
0
65220.7
54921
0
0
65362.4
55358.7
0
0
56695.4
47194.2
0
0
30221.8
0
0
0
12421.9
0
0
0
4083.05
0
0
0
1782.88
0
0
0
0
0
0
0
0
0
0
0
0
0
0
0
0
0
0
0
0
0
0
0
0
0
0
0
985.537
464.794
0
0
0
0
0
0
0
0
0
0
0
0
0
0
0
0
0
0
0
0
0
0
0
0
0
0
0
0
0
0
0
0
0
0
0
0
0
0
0
0
0
0
0
0
0
0
0
0
0
0
0
0
0
0
0
0
0
0
0
0
0
0
0
0
0
0
0
0
0
0
0
0
0
0
0
0
0
0
0
0
</DataArray>
</PointData>
<Cells>
<DataArray type='Int32' Name='connectivity' format='ascii'>
0
1
2
3
4
5
6
7
8
9
10
11
12
13
14
15
16
17
18
19
20
21
22
23
24
25
26
27
28
29
30
31
32
33
34
35
36
37
38
39
40
41
42
43
44
45
46
47
48
49
50
51
52
53
54
55
56
57
58
59
60
61
62
63
64
65
66
67
68
69
70
71
72
73
74
75
76
77
78
79
80
81
82
83
84
85
86
87
88
89
90
91
92
93
94
95
96
97
98
99
100
101
102
103
104
105
106
107
108
109
110
111
112
113
114
115
116
117
118
119
120
121
122
123
124
125
126
127
128
129
130
131
132
133
134
135
136
137
138
139
140
141
142
143
144
145
146
147
148
149
150
151
152
153
154
155
156
157
158
159
160
161
162
163
164
165
166
167
168
169
170
171
172
173
174
175
176
177
178
179
180
181
182
183
184
185
186
187
188
189
190
191
192
193
194
195
196
197
198
199
200
201
202
203
204
205
206
207
208
209
210
211
212
213
214
215
216
217
218
219
220
221
222
223
224
225
226
227
228
229
230
231
232
233
234
235
236
237
238
239
240
241
242
243
244
245
246
247
248
249
250
251
252
253
254
255
256
257
258
259
260
261
262
263
264
265
266
267
268
269
270
271
272
273
274
275
276
277
278
279
280
281
282
283
284
285
286
287
288
289
290
291
292
293
294
295
296
297
298
299
300
301
302
303
304
305
306
307
308
309
310
311
312
313
314
315
316
317
318
319
320
321
322
323
324
325
326
327
328
329
330
331
332
333
334
335
336
337
338
339
340
341
342
343
344
345
346
347
348
349
350
351
352
353
354
355
356
357
358
359
360
361
362
363
364
365
366
367
368
369
370
371
372
373
374
375
376
377
378
379
380
381
382
383
384
385
386
387
388
389
390
391
392
393
394
395
396
397
398
399
400
401
402
403
404
405
406
407
408
409
410
411
412
413
414
415
416
417
418
419
420
421
422
423
424
425
426
427
428
429
430
431
432
433
434
435
436
437
438
439
440
441
442
443
444
445
446
447
448
449
450
451
452
453
454
455
456
457
458
459
460
461
462
463
464
465
466
467
468
469
470
471
472
473
474
475
476
477
478
479
480
481
482
483
484
485
486
487
488
489
490
491
492
493
494
495
496
497
498
499
500
501
502
503
504
505
506
507
508
509
510
511
512
513
514
515
516
517
518
519
520
521
522
523
524
525
526
527
528
529
530
531
532
533
534
535
536
537
538
539
540
541
542
543
544
545
546
547
548
549
550
551
552
553
554
555
556
557
558
559
560
561
562
563
564
565
566
567
568
569
570
571
572
573
574
575
576
577
578
579
580
581
582
583
</DataArray>
<DataArray type='Int32' Name='offsets' format='ascii'>
1
2
3
4
5
6
7
8
9
10
11
12
13
14
15
16
17
18
19
20
21
22
23
24
25
26
27
28
29
30
31
32
33
34
35
36
37
38
39
40
41
42
43
44
45
46
47
48
49
50
51
52
53
54
55
56
57
58
59
60
61
62
63
64
65
66
67
68
69
70
71
72
73
74
75
76
77
78
79
80
81
82
83
84
85
86
87
88
89
90
91
92
93
94
95
96
97
98
99
100
101
102
103
104
105
106
107
108
109
110
111
112
113
114
115
116
117
118
119
120
121
122
123
124
125
126
127
128
129
130
131
132
133
134
135
136
137
138
139
140
141
142
143
144
145
146
147
148
149
150
151
152
153
154
155
156
157
158
159
160
161
162
163
164
165
166
167
168
169
170
171
172
173
174
175
176
177
178
179
180
181
182
183
184
185
186
187
188
189
190
191
192
193
194
195
196
197
198
199
200
201
202
203
204
205
206
207
208
209
210
211
212
213
214
215
216
217
218
219
220
221
222
223
224
225
226
227
228
229
230
231
232
233
234
235
236
237
238
239
240
241
242
243
244
245
246
247
248
249
250
251
252
253
254
255
256
257
258
259
260
261
262
263
264
265
266
267
268
269
270
271
272
273
274
275
276
277
278
279
280
281
282
283
284
285
286
287
288
289
290
291
292
293
294
295
296
297
298
299
300
301
302
303
304
305
306
307
308
309
310
311
312
313
314
315
316
317
318
319
320
321
322
323
324
325
326
327
328
329
330
331
332
333
334
335
336
337
338
339
340
341
342
343
344
345
346
347
348
349
350
351
352
353
354
355
356
357
358
359
360
361
362
363
364
365
366
367
368
369
370
371
372
373
374
375
376
377
378
379
380
381
382
383
384
385
386
387
388
389
390
391
392
393
394
395
396
397
398
399
400
401
402
403
404
405
406
407
408
409
410
411
412
413
414
415
416
417
418
419
420
421
422
423
424
425
426
427
428
429
430
431
432
433
434
435
436
437
438
439
440
441
442
443
444
445
446
447
448
449
450
451
452
453
454
455
456
457
458
459
460
461
462
463
464
465
466
467
468
469
470
471
472
473
474
475
476
477
478
479
480
481
482
483
484
485
486
487
488
489
490
491
492
493
494
495
496
497
498
499
500
501
502
503
504
505
506
507
508
509
510
511
512
513
514
515
516
517
518
519
520
521
522
523
524
525
526
527
528
529
530
531
532
533
534
535
536
537
538
539
540
541
542
543
544
545
546
547
548
549
550
551
552
553
554
555
556
557
558
559
560
561
562
563
564
565
566
567
568
569
570
571
572
573
574
575
576
577
578
579
580
581
582
583
584
</DataArray>
<DataArray type='UInt8' Name='types' format='ascii'>
1
1
1
1
1
1
1
1
1
1
1
1
1
1
1
1
1
1
1
1
1
1
1
1
1
1
1
1
1
1
1
1
1
1
1
1
1
1
1
1
1
1
1
1
1
1
1
1
1
1
1
1
1
1
1
1
1
1
1
1
1
1
1
1
1
1
1
1
1
1
1
1
1
1
1
1
1
1
1
1
1
1
1
1
1
1
1
1
1
1
1
1
1
1
1
1
1
1
1
1
1
1
1
1
1
1
1
1
1
1
1
1
1
1
1
1
1
1
1
1
1
1
1
1
1
1
1
1
1
1
1
1
1
1
1
1
1
1
1
1
1
1
1
1
1
1
1
1
1
1
1
1
1
1
1
1
1
1
1
1
1
1
1
1
1
1
1
1
1
1
1
1
1
1
1
1
1
1
1
1
1
1
1
1
1
1
1
1
1
1
1
1
1
1
1
1
1
1
1
1
1
1
1
1
1
1
1
1
1
1
1
1
1
1
1
1
1
1
1
1
1
1
1
1
1
1
1
1
1
1
1
1
1
1
1
1
1
1
1
1
1
1
1
1
1
1
1
1
1
1
1
1
1
1
1
1
1
1
1
1
1
1
1
1
1
1
1
1
1
1
1
1
1
1
1
1
1
1
1
1
1
1
1
1
1
1
1
1
1
1
1
1
1
1
1
1
1
1
1
1
1
1
1
1
1
1
1
1
1
1
1
1
1
1
1
1
1
1
1
1
1
1
1
1
1
1
1
1
1
1
1
1
1
1
1
1
1
1
1
1
1
1
1
1
1
1
1
1
1
1
1
1
1
1
1
1
1
1
1
1
1
1
1
1
1
1
1
1
1
1
1
1
1
1
1
1
1
1
1
1
1
1
1
1
1
1
1
1
1
1
1
1
1
1
1
1
1
1
1
1
1
1
1
1
1
1
1
1
1
1
1
1
1
1
1
1
1
1
1
1
1
1
1
1
1
1
1
1
1
1
1
1
1
1
1
1
1
1
1
1
1
1
1
1
1
1
1
1
1
1
1
1
1
1
1
1
1
1
1
1
1
1
1
1
1
1
1
1
1
1
1
1
1
1
1
1
1
1
1
1
1
1
1
1
1
1
1
1
1
1
1
1
1
1
1
1
1
1
1
1
1
1
1
1
1
1
1
1
1
1
1
1
1
1
1
1
1
1
1
1
1
1
1
1
1
1
1
1
1
1
1
1
1
1
1
1
1
1
1
1
1
1
1
1
1
1
1
1
1
1
1
1
1
1
1
1
1
1
1
1
1
1
1
1
1
1
1
1
1
1
1
1
1
1
1
1
1
1
1
1
1
1
1
1
</DataArray>
</Cells>
</Piece>
</UnstructuredGrid>
</VTKFile>
