<?xml version='1.0' encoding='UTF-8'?>
<VTKFile xmlns='VTK' byte_order='LittleEndian' version='0.1' type='UnstructuredGrid'>
<UnstructuredGrid>
<Piece NumberOfCells='584' NumberOfPoints='584'>
<Points>
<DataArray NumberOfComponents='3' type='Float32' Name='Position' format='ascii'>
-0.075 0 -0.075
-0.075 0 -0.05
-0.075 0 -0.025
-0.075 0 0
-0.075 0 0.025
-0.075 0 0.05
-0.075 0 0.075
-0.075 0 0.1
-0.075 0 0.125
-0.075 0 0.15
-0.075 0 0.175
-0.075 0 0.2
-0.075 0 0.225
-0.075 0 0.25
-0.075 0 0.275
-0.075 0 0.3
-0.075 0 0.325
-0.075 0 0.35
-0.075 0 0.375
-0.075 0 0.4
-0.075 0 0.425
-0.075 0 0.45
-0.075 0 0.475
-0.075 0 0.5
-0.075 0 0.525
-0.075 0 0.55
-0.075 0 0.575
-0.075 0 0.6
-0.05 0 -0.075
-0.05 0 -0.05
-0.05 0 -0.025
-0.05 0 0
-0.05 0 0.025
-0.05 0 0.05
-0.05 0 0.075
-0.05 0 0.1
-0.05 0 0.125
-0.05 0 0.15
-0.05 0 0.175
-0.05 0 0.2
-0.05 0 0.225
-0.05 0 0.25
-0.05 0 0.275
-0.05 0 0.3
-0.05 0 0.325
-0.05 0 0.35
-0.05 0 0.375
-0.05 0 0.4
-0.05 0 0.425
-0.05 0 0.45
-0.05 0 0.475
-0.05 0 0.5
-0.05 0 0.525
-0.05 0 0.55
-0.05 0 0.575
-0.05 0 0.6
-0.025 0 -0.075
-0.025 0 -0.05
-0.025 0 -0.025
-0.025 0 0
-0.025 0 0.025
-0.025 0 0.05
-0.025 0 0.075
-0.025 0 0.1
-0.025 0 0.125
-0.025 0 0.15
-0.025 0 0.175
-0.025 0 0.2
-0.025 0 0.225
-0.025 0 0.25
-0.025 0 0.275
-0.025 0 0.3
-0.025 0 0.325
-0.025 0 0.35
-0.025 0 0.375
-0.025 0 0.4
-0.025 0 0.425
-0.025 0 0.45
-0.025 0 0.475
-0.025 0 0.5
-0.025 0 0.525
-0.025 0 0.55
-0.025 0 0.575
-0.025 0 0.6
0 0 -0.075
0 0 -0.05
0 0 -0.025
0 0 0
0 0 0.025
0 0 0.05
0 0 0.075
0 0 0.1
0 0 0.125
0 0 0.15
0 0 0.175
0 0 0.2
0 0 0.225
0 0 0.25
0 0 0.275
0 0 0.3
0 0 0.325
0 0 0.35
0 0 0.375
0 0 0.4
0 0 0.425
0 0 0.45
0 0 0.475
0 0 0.5
0 0 0.525
0 0 0.55
0 0 0.575
0 0 0.6
0.025 0 -0.075
0.025 0 -0.05
0.025 0 -0.025
0.025 0 0
0.222497 0 0.728292
0.012497 0 0.0426831
0.0113156 0 0.243518
0.0360424 0 0.31239
-0.364465 0 3.70801
0.102148 0 0.029236
0.508557 0 0.237208
1186.97 0 -1440.14
0.111445 0 0.0279444
0.110127 0 0.562472
0.416921 0 0.0442077
0.18692 0 0.502818
0.0412619 0 0.361748
0.171446 0 0.0635751
0.126458 0 0.0949962
-5.69488 0 0.7524
0.0520136 0 0.318332
0.28821 0 0.124657
0.317948 0 0.393088
0.532507 0 0.0656854
0.05 0 -0.075
0.05 0 -0.05
0.05 0 -0.025
0.05 0 0
0.243125 0 0.414649
0.265447 0 2.15339
-21.4044 0 14.2135
0.188937 0 0.303698
0.222991 0 0.908992
0.157947 0 -2.92275
0.385363 0 0.0486274
-160.8 0 -589.667
0.236893 0 0.0101963
0.221797 0 0.208424
-1185.62 0 1439.33
0.108026 0 0.150821
0.0199154 0 0.108175
-16.3582 0 -16.9657
0.0453371 0 0.338985
0.119564 0 0.184916
-5.90145 0 -4.13503
0.560907 0 0.243387
0.225263 0 0.437837
0.0931401 0 0.093698
0.075 0 -0.075
0.075 0 -0.05
0.075 0 -0.025
0.075 0 0
0.347973 0 0.0614854
0.363418 0 0.129322
0.469594 0 0.0811653
-3.32949 0 -8.05525
-46.7266 0 -4.07884
-19.4289 0 -0.338328
0.69721 0 0.0765365
6.49325 0 2.08409
0.700322 0 0.307307
0.939465 0 0.399755
0.119906 0 0.0868515
-3.97137 0 4.56225
-0.657828 0 2.64539
1.3378 0 -6.33861
1.40517 0 2.18492
0.298508 0 0.336314
1.01064 0 1.72247
0.156221 0 0.0800776
0.299865 0 -11.2343
0.428039 0 0.112506
0.1 0 -0.075
0.1 0 -0.05
0.1 0 -0.025
0.1 0 0
4.39058 0 -11.4388
-0.644595 0 6.33774
0.6945 0 -2.0323
0.462055 0 0.364838
-61.5129 0 -40.6958
29.5023 0 -48.1574
0.344074 0 0.104943
0.466905 0 -2.76301
62.901 0 11.3061
44.8819 0 -13.7193
0.613031 0 0.0191355
554686 0 -50382.7
0.906712 0 0.272845
3.47714 0 5.72757
-39.4013 0 8.77627
0.411562 0 0.229655
155.312 0 584.2
0.576242 0 0.18816
-8.65729 0 -10.2448
0.0496194 0 0.0155218
0.125 0 -0.075
0.125 0 -0.05
0.125 0 -0.025
0.125 0 0
0.753727 0 2.02183
0.912573 0 -0.0096483
0.338844 0 1.00828
0.698074 0 0.599625
19.0342 0 1.73104
-17.9476 0 8.17295
1.17276 0 11.3951
0.922774 0 0.0495767
0.294839 0 1.69292
-4.85925 0 11.1444
0.0321539 0 0.135387
0.415193 0 0.0562861
0.100893 0 1.20009
0.90654 0 0.042652
108.656 0 -206.59
1.37354 0 -8.28964
-33.977 0 -60.216
-11.0891 0 -10.3527
0.254937 0 0.0643662
0.433873 0 2.65276
0.15 0 -0.075
0.15 0 -0.05
0.15 0 -0.025
0.15 0 0
7.01987 0 -21.8189
-24.7242 0 -21.3363
0.778045 0 1.30981
-2.1683 0 10.9587
0.251431 0 0.248479
27.6221 0 23.323
0.659669 0 0.030239
8762.53 0 -1943.11
-0.225283 0 1.06269
-0.571651 0 1.92539
0.995691 0 0.176125
1.03228 0 -2.02421
0.604328 0 0.231882
0.186618 0 0.0359054
0.412248 0 0.512327
-554684 0 50385.6
0.704074 0 1.32202
3.25926 0 4.14005
0.645168 0 0.180093
61.4926 0 38.7645
0.175 0 -0.075
0.175 0 -0.05
0.175 0 -0.025
0.175 0 0
-9.80427 0 19.7082
-5.17999 0 -3.96783
-2.78788 0 11.3345
14.9386 0 16.1918
0.746127 0 0.0282116
-0.627852 0 0.972367
-10.385 0 -20.4544
44.5245 0 -69.2419
-81.6318 0 153.921
14.1321 0 0.706225
0.893818 0 0.519006
0.615784 0 0.0388746
-1.11725 0 9.45965
10.5189 0 -16.7938
0.398148 0 0.661062
-1.23569 0 5.97122
-3.71929 0 -10.4523
0.676552 0 0.0167628
-0.425456 0 7.85085
0.276817 0 0.370302
0.2 0 -0.075
0.2 0 -0.05
0.2 0 -0.025
0.2 0 0
-54.8224 0 -66.8843
0.602765 0 0.954588
423.731 0 -139.525
10.838 0 -5.53681
0.909995 0 0.178053
0.0954775 0 0.0659404
16.1986 0 18.1785
0.748575 0 1.60268
0.171398 0 1.0974
0.0987127 0 1.94578
-5.83483 0 4.82417
42.184 0 24.3029
22.2659 0 6.1818
-1.22306 0 2.30954
0.616788 0 0.120426
-0.976031 0 1.24388
0.206493 0 0.221901
54.7169 0 19.1197
0.452713 0 1.78747
0.983559 0 0.304045
0.225 0 -0.075
0.225 0 -0.05
0.225 0 -0.025
0.225 0 0
29.3992 0 -7.59726
0.249852 0 0.225775
8.8533 0 10.6291
17.5127 0 8.55526
33.1131 0 29.6083
-1.02755 0 -0.232374
-13.1098 0 -15.1425
1.18366 0 0.624376
-439.086 0 133.467
3.46141 0 -15.2899
0.511632 0 0.38482
53.7691 0 68.4302
7.46033 0 6.4733
1.86516 0 1.82153
11.8273 0 24.1144
0.55525 0 3.32411
9.04163 0 -0.626943
-29.9931 0 48.8765
-0.144419 0 1.01785
-1.0213 0 3.37097
0.25 0 -0.075
0.25 0 -0.05
0.25 0 -0.025
0.25 0 0
4.0017 0 6.07266
-1.45588 0 6.4353
0.122797 0 0.726176
0.061749 0 0.673812
-47.54 0 -12.9837
0.421324 0 0.0288806
-0.35487 0 0.143933
23.584 0 16.6044
0.758542 0 1.08663
-4.0664 0 3.81649
1.00928 0 0.1097
0.0304745 0 0.15109
-4.57513 0 7.56131
0.763126 0 4.64881
0.0135731 0 0.823073
0.7581 0 0.514172
0.896464 0 0.109781
18.4732 0 -20.6991
-3.07491 0 -9.39272
-18.1896 0 21.2719
0.275 0 -0.075
0.275 0 -0.05
0.275 0 -0.025
0.275 0 0
0.3 0 -0.075
0.3 0 -0.05
0.3 0 -0.025
0.3 0 0
0.325 0 -0.075
0.325 0 -0.05
0.325 0 -0.025
0.325 0 0
0.35 0 -0.075
0.35 0 -0.05
0.35 0 -0.025
0.35 0 0
0.375 0 -0.075
0.375 0 -0.05
0.375 0 -0.025
0.375 0 0
0.4 0 -0.075
0.4 0 -0.05
0.4 0 -0.025
0.4 0 0
0.425 0 -0.075
0.425 0 -0.05
0.425 0 -0.025
0.425 0 0
0.45 0 -0.075
0.45 0 -0.05
0.45 0 -0.025
0.45 0 0
0.475 0 -0.075
0.475 0 -0.05
0.475 0 -0.025
0.475 0 0
0.5 0 -0.075
0.5 0 -0.05
0.5 0 -0.025
0.5 0 0
0.525 0 -0.075
0.525 0 -0.05
0.525 0 -0.025
0.525 0 0
0.55 0 -0.075
0.55 0 -0.05
0.55 0 -0.025
0.55 0 0
0.575 0 -0.075
0.575 0 -0.05
0.575 0 -0.025
0.575 0 0
0.6 0 -0.075
0.6 0 -0.05
0.6 0 -0.025
0.6 0 0
0.625 0 -0.075
0.625 0 -0.05
0.625 0 -0.025
0.625 0 0
0.65 0 -0.075
0.65 0 -0.05
0.65 0 -0.025
0.65 0 0
0.675 0 -0.075
0.675 0 -0.05
0.675 0 -0.025
0.675 0 0
0.7 0 -0.075
0.7 0 -0.05
0.7 0 -0.025
0.7 0 0
0.725 0 -0.075
0.725 0 -0.05
0.725 0 -0.025
0.725 0 0
0.75 0 -0.075
0.75 0 -0.05
0.75 0 -0.025
0.75 0 0
0.775 0 -0.075
0.775 0 -0.05
0.775 0 -0.025
0.775 0 0
0.8 0 -0.075
0.8 0 -0.05
0.8 0 -0.025
0.8 0 0
0.825 0 -0.075
0.825 0 -0.05
0.825 0 -0.025
0.825 0 0
0.85 0 -0.075
0.85 0 -0.05
0.85 0 -0.025
0.85 0 0
0.875 0 -0.075
0.875 0 -0.05
0.875 0 -0.025
0.875 0 0
0.9 0 -0.075
0.9 0 -0.05
0.9 0 -0.025
0.9 0 0
0.925 0 -0.075
0.925 0 -0.05
0.925 0 -0.025
0.925 0 0
0.95 0 -0.075
0.95 0 -0.05
0.95 0 -0.025
0.95 0 0
0.975 0 -0.075
0.975 0 -0.05
0.975 0 -0.025
0.975 0 0
1 0 -0.075
1 0 -0.05
1 0 -0.025
1 0 0
1.025 0 -0.075
1.025 0 -0.05
1.025 0 -0.025
1.025 0 0
1.025 0 0.025
1.025 0 0.05
1.025 0 0.075
1.025 0 0.1
1.025 0 0.125
1.025 0 0.15
1.025 0 0.175
1.025 0 0.2
1.025 0 0.225
1.025 0 0.25
1.025 0 0.275
1.025 0 0.3
1.025 0 0.325
1.025 0 0.35
1.025 0 0.375
1.025 0 0.4
1.025 0 0.425
1.025 0 0.45
1.025 0 0.475
1.025 0 0.5
1.025 0 0.525
1.025 0 0.55
1.025 0 0.575
1.025 0 0.6
1.05 0 -0.075
1.05 0 -0.05
1.05 0 -0.025
1.05 0 0
1.05 0 0.025
1.05 0 0.05
1.05 0 0.075
1.05 0 0.1
1.05 0 0.125
1.05 0 0.15
1.05 0 0.175
1.05 0 0.2
1.05 0 0.225
1.05 0 0.25
1.05 0 0.275
1.05 0 0.3
1.05 0 0.325
1.05 0 0.35
1.05 0 0.375
1.05 0 0.4
1.05 0 0.425
1.05 0 0.45
1.05 0 0.475
1.05 0 0.5
1.05 0 0.525
1.05 0 0.55
1.05 0 0.575
1.05 0 0.6
1.075 0 -0.075
1.075 0 -0.05
1.075 0 -0.025
1.075 0 0
1.075 0 0.025
1.075 0 0.05
1.075 0 0.075
1.075 0 0.1
1.075 0 0.125
1.075 0 0.15
1.075 0 0.175
1.075 0 0.2
1.075 0 0.225
1.075 0 0.25
1.075 0 0.275
1.075 0 0.3
1.075 0 0.325
1.075 0 0.35
1.075 0 0.375
1.075 0 0.4
1.075 0 0.425
1.075 0 0.45
1.075 0 0.475
1.075 0 0.5
1.075 0 0.525
1.075 0 0.55
1.075 0 0.575
1.075 0 0.6
1.1 0 -0.075
1.1 0 -0.05
1.1 0 -0.025
1.1 0 0
1.1 0 0.025
1.1 0 0.05
1.1 0 0.075
1.1 0 0.1
1.1 0 0.125
1.1 0 0.15
1.1 0 0.175
1.1 0 0.2
1.1 0 0.225
1.1 0 0.25
1.1 0 0.275
1.1 0 0.3
1.1 0 0.325
1.1 0 0.35
1.1 0 0.375
1.1 0 0.4
1.1 0 0.425
1.1 0 0.45
1.1 0 0.475
1.1 0 0.5
1.1 0 0.525
1.1 0 0.55
1.1 0 0.575
1.1 0 0.6
</DataArray>
</Points>
<PointData>
<DataArray NumberOfComponents='1' type='Int32' Name='ParticleType' format='ascii'>
2
2
2
2
2
2
2
2
2
2
2
2
2
2
2
2
2
2
2
2
2
2
2
2
2
2
1
1
2
2
2
2
2
2
2
2
2
2
2
2
2
2
2
2
2
2
2
2
2
2
2
2
2
2
1
1
2
2
1
1
1
1
1
1
1
1
1
1
1
1
1
1
1
1
1
1
1
1
1
1
1
1
1
1
2
2
1
1
1
1
1
1
1
1
1
1
1
1
1
1
1
1
1
1
1
1
1
1
1
1
1
1
2
2
1
1
0
0
0
0
0
0
0
0
0
0
0
0
0
0
0
0
0
0
0
0
2
2
1
1
0
0
0
0
0
0
0
0
0
0
0
0
0
0
0
0
0
0
0
0
2
2
1
1
0
0
0
0
0
0
0
0
0
0
0
0
0
0
0
0
0
0
0
0
2
2
1
1
0
0
0
0
0
0
0
0
0
0
0
0
0
0
0
0
0
0
0
0
2
2
1
1
0
0
0
0
0
0
0
0
0
0
0
0
0
0
0
0
0
0
0
0
2
2
1
1
0
0
0
0
0
0
0
0
0
0
0
0
0
0
0
0
0
0
0
0
2
2
1
1
0
0
0
0
0
0
0
0
0
0
0
0
0
0
0
0
0
0
0
0
2
2
1
1
0
0
0
0
0
0
0
0
0
0
0
0
0
0
0
0
0
0
0
0
2
2
1
1
0
0
0
0
0
0
0
0
0
0
0
0
0
0
0
0
0
0
0
0
2
2
1
1
0
0
0
0
0
0
0
0
0
0
0
0
0
0
0
0
0
0
0
0
2
2
1
1
2
2
1
1
2
2
1
1
2
2
1
1
2
2
1
1
2
2
1
1
2
2
1
1
2
2
1
1
2
2
1
1
2
2
1
1
2
2
1
1
2
2
1
1
2
2
1
1
2
2
1
1
2
2
1
1
2
2
1
1
2
2
1
1
2
2
1
1
2
2
1
1
2
2
1
1
2
2
1
1
2
2
1
1
2
2
1
1
2
2
1
1
2
2
1
1
2
2
1
1
2
2
1
1
2
2
1
1
2
2
1
1
2
2
1
1
2
2
1
1
1
1
1
1
1
1
1
1
1
1
1
1
1
1
1
1
1
1
1
1
1
1
1
1
2
2
1
1
1
1
1
1
1
1
1
1
1
1
1
1
1
1
1
1
1
1
1
1
1
1
1
1
2
2
2
2
2
2
2
2
2
2
2
2
2
2
2
2
2
2
2
2
2
2
2
2
2
2
1
1
2
2
2
2
2
2
2
2
2
2
2
2
2
2
2
2
2
2
2
2
2
2
2
2
2
2
1
1
</DataArray>
<DataArray NumberOfComponents='1' type='Float32' Name='Velocity' format='ascii'>
0
0
0
0
0
0
0
0
0
0
0
0
0
0
0
0
0
0
0
0
0
0
0
0
0
0
0
0
0
0
0
0
0
0
0
0
0
0
0
0
0
0
0
0
0
0
0
0
0
0
0
0
0
0
0
0
0
0
0
0
0
0
0
0
0
0
0
0
0
0
0
0
0
0
0
0
0
0
0
0
0
0
0
0
0
0
0
0
0
0
0
0
0
0
0
0
0
0
0
0
0
0
0
0
0
0
0
0
0
0
0
0
0
0
0
0
5.44484
0.928967
0.642087
0.348564
14.5424
1.08602
1.4467
7976.03
0.844247
1.62861
0.791575
3.15615
1.96641
1.22746
0.955958
101.479
0.847211
1.88092
2.81369
1.51578
0
0
0
0
0.584923
11.2048
100.653
2.09626
4.74652
14.1262
1.21273
3027.73
0.179863
2.34754
7968.46
1.52651
1.14248
443.599
1.0428
0.78468
31.1709
0.980853
1.52655
0.110544
0
0
0
0
0.245959
0.752834
9.80093
36.5023
191.228
79.5173
1.23064
109.271
0.778654
1.30978
0.900402
24.0419
10.0913
52.7427
8.24001
1.76577
5.85826
0.442968
70.8542
74.9754
0
0
0
0
64.6769
24.9967
11.3024
2.48538
379.535
257.699
1.69915
15.079
246.723
184.096
1.41835
3.50295e+06
0.757321
44.1047
163.995
2.64836
2990.37
1.62396
56.0974
1.75776
0
0
0
0
39.3083
0.0355845
5.92914
1.97454
74.8794
83.1433
68.9014
0.379695
8.12257
47.02
2.47157
2.42456
3.77739
1.69845
922.693
34.8
478.374
136.272
88.7947
8.76848
0
0
0
0
91.012
142.743
4.22053
59.4277
3.63951
150.017
2.27389
52482.1
4.66831
10.0622
0.386122
51.6784
5.56553
2.12543
3.53121
3.50294e+06
4.59355
21.2829
2.62879
367.594
0
0
0
0
86.5765
70.4923
43.6386
87.8039
0.307616
6.02578
93.3289
543.337
688.565
49.56
0.521957
0.855657
34.6566
76.7465
2.77802
40.7498
46.3452
0.70809
31.3643
2.11034
0
0
0
0
349.454
2.37151
1727.29
46.971
1.36094
0.373935
443.476
4.2156
2.10556
7.50716
33.0964
189.18
84.5881
10.9267
1.89685
7.19182
1.74435
229.422
7.66425
1.21864
0
0
0
0
122.235
3.27498
116.175
76.577
97.0543
5.15674
80.3636
1.17001
1780.41
59.793
2.27868
344.57
34.9553
6.566
103.493
11.7995
32.7108
262.044
3.80033
14.0229
0
0
0
0
32.2779
50.3547
3.52673
3.01202
114.11
1.23305
4.77095
109.733
6.46632
21.8358
0.839114
0.419796
34.8265
20.2006
3.41583
4.34038
0.727531
103.666
44.5192
105.966
0
0
0
0
0
0
0
0
0
0
0
0
0
0
0
0
0
0
0
0
0
0
0
0
0
0
0
0
0
0
0
0
0
0
0
0
0
0
0
0
0
0
0
0
0
0
0
0
0
0
0
0
0
0
0
0
0
0
0
0
0
0
0
0
0
0
0
0
0
0
0
0
0
0
0
0
0
0
0
0
0
0
0
0
0
0
0
0
0
0
0
0
0
0
0
0
0
0
0
0
0
0
0
0
0
0
0
0
0
0
0
0
0
0
0
0
0
0
0
0
0
0
0
0
0
0
0
0
0
0
0
0
0
0
0
0
0
0
0
0
0
0
0
0
0
0
0
0
0
0
0
0
0
0
0
0
0
0
0
0
0
0
0
0
0
0
0
0
0
0
0
0
0
0
0
0
0
0
0
0
0
0
0
0
0
0
0
0
0
0
0
0
0
0
0
0
0
0
0
0
0
0
0
0
0
0
0
0
0
0
0
0
0
0
0
0
0
0
0
0
0
0
0
0
0
0
0
0
0
0
0
0
</DataArray>
<DataArray NumberOfComponents='1' type='Float32' Name='pressure' format='ascii'>
0
0
0
0
0
0
0
0
0
0
0
0
0
0
0
0
0
0
0
0
0
0
0
0
0
0
0
0
0
0
0
0
0
0
0
0
0
0
0
0
0
0
0
0
0
0
0
0
0
0
0
0
0
0
0
0
0
0
977.176
1238.47
2827.52
3648.92
1500.65
1319.18
579.505
0
0
648.984
3137.3
4346.31
1862.45
333.962
0
0
0
0
0
0
0
0
0
0
0
0
0
0
895.51
0
546.58
3364.52
0
0
0
0
0
0
0
5420
0
0
0
0
0
0
0
0
0
0
0
0
0
0
0
0
1305.19
0
0
0
0
0
0
0
0
0
32.0522
0
0
0
0
0
0
0
0
0
0
0
0
0
2388.07
1799.28
0
0
0
0
0
0
0
0
0
0
0
0
0
0
0
0
0
0
0
0
0
0
959.755
0
0
0
0
0
0
0
0
0
0
0
0
0
0
0
0
0
0
0
0
98376.5
0
0
0
0
0
0
0
0
0
0
0
0
0
0
0
0
0
0
0
0
0
0
0
0
0
0
0
0
0
30553
0
0
0
0
0
0
0
0
0
0
0
0
0
0
0
0
98991.2
0
0
0
0
0
0
0
0
0
0
0
0
0
0
0
0
0
0
0
0
0
0
0
0
0
0
0
46.7714
0
0
0
0
0
0
0
0
0
0
0
0
0
0
0
0
0
0
0
0
0
0
0
1025.76
0
0
0
0
0
0
0
0
0
0
0
0
0
0
0
0
0
0
0
0
0
0
0
3794.42
2309.96
0
0
0
0
0
0
0
0
0
0
0
0
0
0
0
0
0
0
0
0
0
0
3656.19
1503.7
0
0
0
0
0
0
0
0
0
0
0
0
0
0
0
0
0
0
0
0
0
0
822.778
0
0
0
0
0
0
0
0
0
0
0
0
0
0
0
0
0
0
0
0
0
0
0
0
0
0
0
0
0
0
0
0
0
0
0
0
0
0
0
0
0
0
0
0
0
0
0
0
0
0
0
799.307
0
0
0
1163.97
0
0
0
1081.99
0
0
0
2333.99
3151.24
0
0
1104.84
0
0
0
19.619
0
0
0
0
0
0
0
0
0
0
0
196.256
0
0
0
1539.82
0
0
0
5397.51
0
0
0
13986.7
0
0
0
27250.9
19328.4
0
0
27338.2
19356.6
0
0
14104.7
0
0
0
5429.89
0
0
0
1623.53
0
0
0
720.81
0
0
0
0
0
0
0
0
0
0
0
0
0
0
0
0
0
0
0
0
0
0
0
0
0
0
0
363.917
129.449
0
0
0
1558.51
1281.25
0
0
0
0
0
0
0
0
0
0
0
0
0
0
0
0
0
0
0
0
0
0
0
0
0
0
0
0
0
0
0
0
0
0
0
0
0
0
0
0
0
0
0
0
0
0
0
0
0
0
0
0
0
0
0
0
0
0
0
0
0
0
0
0
0
0
0
0
0
0
0
0
0
0
0
</DataArray>
</PointData>
<Cells>
<DataArray type='Int32' Name='connectivity' format='ascii'>
0
1
2
3
4
5
6
7
8
9
10
11
12
13
14
15
16
17
18
19
20
21
22
23
24
25
26
27
28
29
30
31
32
33
34
35
36
37
38
39
40
41
42
43
44
45
46
47
48
49
50
51
52
53
54
55
56
57
58
59
60
61
62
63
64
65
66
67
68
69
70
71
72
73
74
75
76
77
78
79
80
81
82
83
84
85
86
87
88
89
90
91
92
93
94
95
96
97
98
99
100
101
102
103
104
105
106
107
108
109
110
111
112
113
114
115
116
117
118
119
120
121
122
123
124
125
126
127
128
129
130
131
132
133
134
135
136
137
138
139
140
141
142
143
144
145
146
147
148
149
150
151
152
153
154
155
156
157
158
159
160
161
162
163
164
165
166
167
168
169
170
171
172
173
174
175
176
177
178
179
180
181
182
183
184
185
186
187
188
189
190
191
192
193
194
195
196
197
198
199
200
201
202
203
204
205
206
207
208
209
210
211
212
213
214
215
216
217
218
219
220
221
222
223
224
225
226
227
228
229
230
231
232
233
234
235
236
237
238
239
240
241
242
243
244
245
246
247
248
249
250
251
252
253
254
255
256
257
258
259
260
261
262
263
264
265
266
267
268
269
270
271
272
273
274
275
276
277
278
279
280
281
282
283
284
285
286
287
288
289
290
291
292
293
294
295
296
297
298
299
300
301
302
303
304
305
306
307
308
309
310
311
312
313
314
315
316
317
318
319
320
321
322
323
324
325
326
327
328
329
330
331
332
333
334
335
336
337
338
339
340
341
342
343
344
345
346
347
348
349
350
351
352
353
354
355
356
357
358
359
360
361
362
363
364
365
366
367
368
369
370
371
372
373
374
375
376
377
378
379
380
381
382
383
384
385
386
387
388
389
390
391
392
393
394
395
396
397
398
399
400
401
402
403
404
405
406
407
408
409
410
411
412
413
414
415
416
417
418
419
420
421
422
423
424
425
426
427
428
429
430
431
432
433
434
435
436
437
438
439
440
441
442
443
444
445
446
447
448
449
450
451
452
453
454
455
456
457
458
459
460
461
462
463
464
465
466
467
468
469
470
471
472
473
474
475
476
477
478
479
480
481
482
483
484
485
486
487
488
489
490
491
492
493
494
495
496
497
498
499
500
501
502
503
504
505
506
507
508
509
510
511
512
513
514
515
516
517
518
519
520
521
522
523
524
525
526
527
528
529
530
531
532
533
534
535
536
537
538
539
540
541
542
543
544
545
546
547
548
549
550
551
552
553
554
555
556
557
558
559
560
561
562
563
564
565
566
567
568
569
570
571
572
573
574
575
576
577
578
579
580
581
582
583
</DataArray>
<DataArray type='Int32' Name='offsets' format='ascii'>
1
2
3
4
5
6
7
8
9
10
11
12
13
14
15
16
17
18
19
20
21
22
23
24
25
26
27
28
29
30
31
32
33
34
35
36
37
38
39
40
41
42
43
44
45
46
47
48
49
50
51
52
53
54
55
56
57
58
59
60
61
62
63
64
65
66
67
68
69
70
71
72
73
74
75
76
77
78
79
80
81
82
83
84
85
86
87
88
89
90
91
92
93
94
95
96
97
98
99
100
101
102
103
104
105
106
107
108
109
110
111
112
113
114
115
116
117
118
119
120
121
122
123
124
125
126
127
128
129
130
131
132
133
134
135
136
137
138
139
140
141
142
143
144
145
146
147
148
149
150
151
152
153
154
155
156
157
158
159
160
161
162
163
164
165
166
167
168
169
170
171
172
173
174
175
176
177
178
179
180
181
182
183
184
185
186
187
188
189
190
191
192
193
194
195
196
197
198
199
200
201
202
203
204
205
206
207
208
209
210
211
212
213
214
215
216
217
218
219
220
221
222
223
224
225
226
227
228
229
230
231
232
233
234
235
236
237
238
239
240
241
242
243
244
245
246
247
248
249
250
251
252
253
254
255
256
257
258
259
260
261
262
263
264
265
266
267
268
269
270
271
272
273
274
275
276
277
278
279
280
281
282
283
284
285
286
287
288
289
290
291
292
293
294
295
296
297
298
299
300
301
302
303
304
305
306
307
308
309
310
311
312
313
314
315
316
317
318
319
320
321
322
323
324
325
326
327
328
329
330
331
332
333
334
335
336
337
338
339
340
341
342
343
344
345
346
347
348
349
350
351
352
353
354
355
356
357
358
359
360
361
362
363
364
365
366
367
368
369
370
371
372
373
374
375
376
377
378
379
380
381
382
383
384
385
386
387
388
389
390
391
392
393
394
395
396
397
398
399
400
401
402
403
404
405
406
407
408
409
410
411
412
413
414
415
416
417
418
419
420
421
422
423
424
425
426
427
428
429
430
431
432
433
434
435
436
437
438
439
440
441
442
443
444
445
446
447
448
449
450
451
452
453
454
455
456
457
458
459
460
461
462
463
464
465
466
467
468
469
470
471
472
473
474
475
476
477
478
479
480
481
482
483
484
485
486
487
488
489
490
491
492
493
494
495
496
497
498
499
500
501
502
503
504
505
506
507
508
509
510
511
512
513
514
515
516
517
518
519
520
521
522
523
524
525
526
527
528
529
530
531
532
533
534
535
536
537
538
539
540
541
542
543
544
545
546
547
548
549
550
551
552
553
554
555
556
557
558
559
560
561
562
563
564
565
566
567
568
569
570
571
572
573
574
575
576
577
578
579
580
581
582
583
584
</DataArray>
<DataArray type='UInt8' Name='types' format='ascii'>
1
1
1
1
1
1
1
1
1
1
1
1
1
1
1
1
1
1
1
1
1
1
1
1
1
1
1
1
1
1
1
1
1
1
1
1
1
1
1
1
1
1
1
1
1
1
1
1
1
1
1
1
1
1
1
1
1
1
1
1
1
1
1
1
1
1
1
1
1
1
1
1
1
1
1
1
1
1
1
1
1
1
1
1
1
1
1
1
1
1
1
1
1
1
1
1
1
1
1
1
1
1
1
1
1
1
1
1
1
1
1
1
1
1
1
1
1
1
1
1
1
1
1
1
1
1
1
1
1
1
1
1
1
1
1
1
1
1
1
1
1
1
1
1
1
1
1
1
1
1
1
1
1
1
1
1
1
1
1
1
1
1
1
1
1
1
1
1
1
1
1
1
1
1
1
1
1
1
1
1
1
1
1
1
1
1
1
1
1
1
1
1
1
1
1
1
1
1
1
1
1
1
1
1
1
1
1
1
1
1
1
1
1
1
1
1
1
1
1
1
1
1
1
1
1
1
1
1
1
1
1
1
1
1
1
1
1
1
1
1
1
1
1
1
1
1
1
1
1
1
1
1
1
1
1
1
1
1
1
1
1
1
1
1
1
1
1
1
1
1
1
1
1
1
1
1
1
1
1
1
1
1
1
1
1
1
1
1
1
1
1
1
1
1
1
1
1
1
1
1
1
1
1
1
1
1
1
1
1
1
1
1
1
1
1
1
1
1
1
1
1
1
1
1
1
1
1
1
1
1
1
1
1
1
1
1
1
1
1
1
1
1
1
1
1
1
1
1
1
1
1
1
1
1
1
1
1
1
1
1
1
1
1
1
1
1
1
1
1
1
1
1
1
1
1
1
1
1
1
1
1
1
1
1
1
1
1
1
1
1
1
1
1
1
1
1
1
1
1
1
1
1
1
1
1
1
1
1
1
1
1
1
1
1
1
1
1
1
1
1
1
1
1
1
1
1
1
1
1
1
1
1
1
1
1
1
1
1
1
1
1
1
1
1
1
1
1
1
1
1
1
1
1
1
1
1
1
1
1
1
1
1
1
1
1
1
1
1
1
1
1
1
1
1
1
1
1
1
1
1
1
1
1
1
1
1
1
1
1
1
1
1
1
1
1
1
1
1
1
1
1
1
1
1
1
1
1
1
1
1
1
1
1
1
1
1
1
1
1
1
1
1
1
1
1
1
1
1
1
1
1
1
1
1
1
1
1
1
1
1
1
1
1
1
1
1
1
1
1
1
1
1
1
1
1
1
1
1
1
1
1
1
1
1
1
1
1
1
1
1
1
1
1
1
1
1
1
1
1
1
1
1
1
1
</DataArray>
</Cells>
</Piece>
</UnstructuredGrid>
</VTKFile>
