<?xml version='1.0' encoding='UTF-8'?>
<VTKFile xmlns='VTK' byte_order='LittleEndian' version='0.1' type='UnstructuredGrid'>
<UnstructuredGrid>
<Piece NumberOfCells='0' NumberOfPoints='0'>
<Points>
<DataArray NumberOfComponents='3' type='Float32' Name='Position' format='ascii'>
</DataArray>
</Points>
<PointData>
<DataArray NumberOfComponents='1' type='Int32' Name='ParticleType' format='ascii'>
</DataArray>
<DataArray NumberOfComponents='1' type='Float32' Name='Velocity' format='ascii'>
</DataArray>
<DataArray NumberOfComponents='1' type='Float32' Name='pressure' format='ascii'>
</DataArray>
</PointData>
<Cells>
<DataArray type='Int32' Name='connectivity' format='ascii'>
</DataArray>
<DataArray type='Int32' Name='offsets' format='ascii'>
</DataArray>
<DataArray type='UInt8' Name='types' format='ascii'>
</DataArray>
</Cells>
</Piece>
</UnstructuredGrid>
</VTKFile>
